 Entering Link 1 = C:\G16W\l1.exe PID=     11756.
  
 Copyright (c) 1988-2019, Gaussian, Inc.  All Rights Reserved.
  
 This is part of the Gaussian(R) 16 program.  It is based on
 the Gaussian(R) 09 system (copyright 2009, Gaussian, Inc.),
 the Gaussian(R) 03 system (copyright 2003, Gaussian, Inc.),
 the Gaussian(R) 98 system (copyright 1998, Gaussian, Inc.),
 the Gaussian(R) 94 system (copyright 1995, Gaussian, Inc.),
 the Gaussian 92(TM) system (copyright 1992, Gaussian, Inc.),
 the Gaussian 90(TM) system (copyright 1990, Gaussian, Inc.),
 the Gaussian 88(TM) system (copyright 1988, Gaussian, Inc.),
 the Gaussian 86(TM) system (copyright 1986, Carnegie Mellon
 University), and the Gaussian 82(TM) system (copyright 1983,
 Carnegie Mellon University). Gaussian is a federally registered
 trademark of Gaussian, Inc.
  
 This software contains proprietary and confidential information,
 including trade secrets, belonging to Gaussian, Inc.
  
 This software is provided under written license and may be
 used, copied, transmitted, or stored only in accord with that
 written license.
  
 The following legend is applicable only to US Government
 contracts under FAR:
  
                    RESTRICTED RIGHTS LEGEND
  
 Use, reproduction and disclosure by the US Government is
 subject to restrictions as set forth in subparagraphs (a)
 and (c) of the Commercial Computer Software - Restricted
 Rights clause in FAR 52.227-19.
  
 Gaussian, Inc.
 340 Quinnipiac St., Bldg. 40, Wallingford CT 06492
  
  
 ---------------------------------------------------------------
 Warning -- This program may not be used in any manner that
 competes with the business of Gaussian, Inc. or will provide
 assistance to any competitor of Gaussian, Inc.  The licensee
 of this program is prohibited from giving any competitor of
 Gaussian, Inc. access to this program.  By using this program,
 the user acknowledges that Gaussian, Inc. is engaged in the
 business of creating and licensing software in the field of
 computational chemistry and represents and warrants to the
 licensee that it is not a competitor of Gaussian, Inc. and that
 it will not use this program in any manner prohibited above.
 ---------------------------------------------------------------
  

 Cite this work as:
 Gaussian 16, Revision C.01,
 M. J. Frisch, G. W. Trucks, H. B. Schlegel, G. E. Scuseria, 
 M. A. Robb, J. R. Cheeseman, G. Scalmani, V. Barone, 
 G. A. Petersson, H. Nakatsuji, X. Li, M. Caricato, A. V. Marenich, 
 J. Bloino, B. G. Janesko, R. Gomperts, B. Mennucci, H. P. Hratchian, 
 J. V. Ortiz, A. F. Izmaylov, J. L. Sonnenberg, D. Williams-Young, 
 F. Ding, F. Lipparini, F. Egidi, J. Goings, B. Peng, A. Petrone, 
 T. Henderson, D. Ranasinghe, V. G. Zakrzewski, J. Gao, N. Rega, 
 G. Zheng, W. Liang, M. Hada, M. Ehara, K. Toyota, R. Fukuda, 
 J. Hasegawa, M. Ishida, T. Nakajima, Y. Honda, O. Kitao, H. Nakai, 
 T. Vreven, K. Throssell, J. A. Montgomery, Jr., J. E. Peralta, 
 F. Ogliaro, M. J. Bearpark, J. J. Heyd, E. N. Brothers, K. N. Kudin, 
 V. N. Staroverov, T. A. Keith, R. Kobayashi, J. Normand, 
 K. Raghavachari, A. P. Rendell, J. C. Burant, S. S. Iyengar, 
 J. Tomasi, M. Cossi, J. M. Millam, M. Klene, C. Adamo, R. Cammi, 
 J. W. Ochterski, R. L. Martin, K. Morokuma, O. Farkas, 
 J. B. Foresman, and D. J. Fox, Gaussian, Inc., Wallingford CT, 2019.
 
 ******************************************
 Gaussian 16:  EM64W-G16RevC.01 30-May-2019
                11-Jun-2024 
 ******************************************
 %nprocshared=24
 Will use up to   24 processors via shared memory.
 %mem=120GB
 ----------------------
 # HF/6-31G(d) Opt Freq
 ----------------------
 1/18=20,19=15,38=1/1,3;
 2/9=110,12=2,17=6,18=5,40=1/2;
 3/5=1,6=6,7=1,11=9,25=1,30=1,71=1/1,2,3;
 4//1;
 5/5=2,38=5/2;
 6/7=2,8=2,9=2,10=2,28=1/1;
 7//1,2,3,16;
 1/18=20,19=15/3(2);
 2/9=110/2;
 99//99;
 2/9=110/2;
 3/5=1,6=6,7=1,11=9,25=1,30=1,71=1/1,2,3;
 4/5=5,16=3,69=1/1;
 5/5=2,38=5/2;
 7//1,2,3,16;
 1/18=20,19=15/3(-5);
 2/9=110/2;
 6/7=2,8=2,9=2,10=2,19=2,28=1/1;
 99/9=1/99;
 ----------------------------------------------------------------------
 O=[N+1]([O-1])OCC(C(O[N+1]([O-1])=O)O[N+1]([O-1])=O)O[N+1] geometry op
 timization
 ----------------------------------------------------------------------
 Symbolic Z-matrix:
 Charge =  0 Multiplicity = 1
 O                     3.30196   1.84594  -0.21173 
 N                     2.45607   1.92014  -1.10385 
 O                     2.33675   2.73018  -2.01914 
 O                     1.44539   0.92643  -1.11325 
 C                     1.62604  -0.05012  -0.08879 
 C                     0.49     -1.08004  -0.16141 
 C                    -0.92381  -0.47938   0.04924 
 O                    -1.00702   0.05156   1.37064 
 N                    -1.03911   1.4608    1.42465 
 O                    -0.74391   2.06533   0.39666 
 O                    -1.27769   1.88341   2.55161 
 O                    -1.8206   -1.60174  -0.06404 
 N                    -3.16694  -1.20901  -0.2037 
 O                    -3.40552  -0.00334  -0.14679 
 O                    -3.92689  -2.16156  -0.35134 
 O                     0.51231  -1.69426  -1.46084 
 N                     1.41219  -2.83705  -1.41558 
 H                     2.58227  -0.5626   -0.25257 
 H                     1.63391   0.42016   0.90144 
 H                     0.65252  -1.84049   0.61656 
 H                    -1.13793   0.21566  -0.77426 
 

 GradGradGradGradGradGradGradGradGradGradGradGradGradGradGradGradGradGrad
 Berny optimization.
 Initialization pass.
                           ----------------------------
                           !    Initial Parameters    !
                           ! (Angstroms and Degrees)  !
 --------------------------                            --------------------------
 ! Name  Definition              Value          Derivative Info.                !
 --------------------------------------------------------------------------------
 ! R1    R(1,2)                  1.2316         estimate D2E/DX2                !
 ! R2    R(2,3)                  1.2281         estimate D2E/DX2                !
 ! R3    R(2,4)                  1.4174         estimate D2E/DX2                !
 ! R4    R(4,5)                  1.4268         estimate D2E/DX2                !
 ! R5    R(5,6)                  1.5351         estimate D2E/DX2                !
 ! R6    R(5,18)                 1.0972         estimate D2E/DX2                !
 ! R7    R(5,19)                 1.0963         estimate D2E/DX2                !
 ! R8    R(6,7)                  1.5505         estimate D2E/DX2                !
 ! R9    R(6,16)                 1.4375         estimate D2E/DX2                !
 ! R10   R(6,20)                 1.1            estimate D2E/DX2                !
 ! R11   R(7,8)                  1.4265         estimate D2E/DX2                !
 ! R12   R(7,12)                 1.4411         estimate D2E/DX2                !
 ! R13   R(7,21)                 1.0987         estimate D2E/DX2                !
 ! R14   R(8,9)                  1.4106         estimate D2E/DX2                !
 ! R15   R(9,10)                 1.2286         estimate D2E/DX2                !
 ! R16   R(9,11)                 1.227          estimate D2E/DX2                !
 ! R17   R(12,13)                1.4094         estimate D2E/DX2                !
 ! R18   R(13,14)                1.2304         estimate D2E/DX2                !
 ! R19   R(13,15)                1.2275         estimate D2E/DX2                !
 ! R20   R(16,17)                1.4553         estimate D2E/DX2                !
 ! A1    A(1,2,3)              130.2653         estimate D2E/DX2                !
 ! A2    A(1,2,4)              116.8912         estimate D2E/DX2                !
 ! A3    A(3,2,4)              112.8429         estimate D2E/DX2                !
 ! A4    A(2,4,5)              112.6306         estimate D2E/DX2                !
 ! A5    A(4,5,6)              109.3609         estimate D2E/DX2                !
 ! A6    A(4,5,18)             108.8353         estimate D2E/DX2                !
 ! A7    A(4,5,19)             110.8464         estimate D2E/DX2                !
 ! A8    A(6,5,18)             108.9367         estimate D2E/DX2                !
 ! A9    A(6,5,19)             109.6243         estimate D2E/DX2                !
 ! A10   A(18,5,19)            109.2054         estimate D2E/DX2                !
 ! A11   A(5,6,7)              114.1083         estimate D2E/DX2                !
 ! A12   A(5,6,16)             108.539          estimate D2E/DX2                !
 ! A13   A(5,6,20)             108.7245         estimate D2E/DX2                !
 ! A14   A(7,6,16)             107.608          estimate D2E/DX2                !
 ! A15   A(7,6,20)             107.8464         estimate D2E/DX2                !
 ! A16   A(16,6,20)            109.9776         estimate D2E/DX2                !
 ! A17   A(6,7,8)              108.8584         estimate D2E/DX2                !
 ! A18   A(6,7,12)             104.7764         estimate D2E/DX2                !
 ! A19   A(6,7,21)             108.7206         estimate D2E/DX2                !
 ! A20   A(8,7,12)             109.0497         estimate D2E/DX2                !
 ! A21   A(8,7,21)             116.5823         estimate D2E/DX2                !
 ! A22   A(12,7,21)            108.2101         estimate D2E/DX2                !
 ! A23   A(7,8,9)              114.1184         estimate D2E/DX2                !
 ! A24   A(8,9,10)             117.0051         estimate D2E/DX2                !
 ! A25   A(8,9,11)             112.561          estimate D2E/DX2                !
 ! A26   A(10,9,11)            130.2227         estimate D2E/DX2                !
 ! A27   A(7,12,13)            112.6578         estimate D2E/DX2                !
 ! A28   A(12,13,14)           116.9819         estimate D2E/DX2                !
 ! A29   A(12,13,15)           112.774          estimate D2E/DX2                !
 ! A30   A(14,13,15)           130.2384         estimate D2E/DX2                !
 ! A31   A(6,16,17)            108.4837         estimate D2E/DX2                !
 ! D1    D(1,2,3,4)            179.688          estimate D2E/DX2                !
 ! D2    D(1,2,4,5)             -2.657          estimate D2E/DX2                !
 ! D3    D(3,2,4,5)            177.076          estimate D2E/DX2                !
 ! D4    D(2,4,5,6)            179.627          estimate D2E/DX2                !
 ! D5    D(2,4,5,18)           -61.4717         estimate D2E/DX2                !
 ! D6    D(2,4,5,19)            58.648          estimate D2E/DX2                !
 ! D7    D(4,5,6,7)            -60.9265         estimate D2E/DX2                !
 ! D8    D(4,5,6,16)            59.0482         estimate D2E/DX2                !
 ! D9    D(4,5,6,20)           178.6626         estimate D2E/DX2                !
 ! D10   D(18,5,6,7)          -179.7648         estimate D2E/DX2                !
 ! D11   D(18,5,6,16)          -59.7902         estimate D2E/DX2                !
 ! D12   D(18,5,6,20)           59.8243         estimate D2E/DX2                !
 ! D13   D(19,5,6,7)            60.7921         estimate D2E/DX2                !
 ! D14   D(19,5,6,16)         -179.2332         estimate D2E/DX2                !
 ! D15   D(19,5,6,20)          -59.6188         estimate D2E/DX2                !
 ! D16   D(5,6,7,8)            -63.7242         estimate D2E/DX2                !
 ! D17   D(5,6,7,12)           179.7376         estimate D2E/DX2                !
 ! D18   D(5,6,7,21)            64.23           estimate D2E/DX2                !
 ! D19   D(16,6,7,8)           175.7799         estimate D2E/DX2                !
 ! D20   D(16,6,7,12)           59.2417         estimate D2E/DX2                !
 ! D21   D(16,6,7,21)          -56.2659         estimate D2E/DX2                !
 ! D22   D(20,6,7,8)            57.1763         estimate D2E/DX2                !
 ! D23   D(20,6,7,12)          -59.3619         estimate D2E/DX2                !
 ! D24   D(20,6,7,21)         -174.8696         estimate D2E/DX2                !
 ! D25   D(5,6,16,17)           87.8949         estimate D2E/DX2                !
 ! D26   D(7,6,16,17)         -148.1581         estimate D2E/DX2                !
 ! D27   D(20,6,16,17)         -30.9328         estimate D2E/DX2                !
 ! D28   D(6,7,8,9)            108.9779         estimate D2E/DX2                !
 ! D29   D(12,7,8,9)          -137.2518         estimate D2E/DX2                !
 ! D30   D(21,7,8,9)           -14.4002         estimate D2E/DX2                !
 ! D31   D(6,7,12,13)         -166.4025         estimate D2E/DX2                !
 ! D32   D(8,7,12,13)           77.1913         estimate D2E/DX2                !
 ! D33   D(21,7,12,13)         -50.5404         estimate D2E/DX2                !
 ! D34   D(7,8,9,10)           -13.2599         estimate D2E/DX2                !
 ! D35   D(7,8,9,11)           171.4765         estimate D2E/DX2                !
 ! D36   D(8,9,10,11)         -174.2685         estimate D2E/DX2                !
 ! D37   D(7,12,13,14)          -3.3805         estimate D2E/DX2                !
 ! D38   D(7,12,13,15)         177.4007         estimate D2E/DX2                !
 ! D39   D(12,13,14,15)       -179.0563         estimate D2E/DX2                !
 --------------------------------------------------------------------------------
 Trust Radius=3.00D-01 FncErr=1.00D-07 GrdErr=1.00D-07 EigMax=2.50D+02 EigMin=1.00D-04
 Number of steps in this run=    100 maximum allowed number of steps=    126.
 GradGradGradGradGradGradGradGradGradGradGradGradGradGradGradGradGradGrad

                          Input orientation:                          
 ---------------------------------------------------------------------
 Center     Atomic      Atomic             Coordinates (Angstroms)
 Number     Number       Type             X           Y           Z
 ---------------------------------------------------------------------
      1          8           0        3.301964    1.845939   -0.211726
      2          7           0        2.456074    1.920139   -1.103846
      3          8           0        2.336748    2.730181   -2.019140
      4          8           0        1.445389    0.926426   -1.113250
      5          6           0        1.626044   -0.050118   -0.088787
      6          6           0        0.489996   -1.080042   -0.161407
      7          6           0       -0.923807   -0.479385    0.049238
      8          8           0       -1.007022    0.051564    1.370644
      9          7           0       -1.039111    1.460800    1.424653
     10          8           0       -0.743914    2.065330    0.396655
     11          8           0       -1.277687    1.883407    2.551610
     12          8           0       -1.820602   -1.601743   -0.064039
     13          7           0       -3.166945   -1.209006   -0.203701
     14          8           0       -3.405515   -0.003343   -0.146790
     15          8           0       -3.926893   -2.161555   -0.351344
     16          8           0        0.512312   -1.694263   -1.460841
     17          7           0        1.412186   -2.837054   -1.415585
     18          1           0        2.582273   -0.562604   -0.252572
     19          1           0        1.633914    0.420159    0.901439
     20          1           0        0.652522   -1.840491    0.616562
     21          1           0       -1.137925    0.215658   -0.774263
 ---------------------------------------------------------------------
                    Distance matrix (angstroms):
                    1          2          3          4          5
     1  O    0.000000
     2  N    1.231631   0.000000
     3  O    2.231652   1.228075   0.000000
     4  O    2.259451   1.417405   2.206511   0.000000
     5  C    2.533546   2.366687   3.458530   1.426815   0.000000
     6  C    4.058456   3.708739   4.623793   2.417581   1.535129
     7  C    4.830360   4.302431   5.021027   2.990112   2.589413
     8  O    4.928594   4.648409   5.463188   3.598532   3.012194
     9  N    4.655213   4.338275   4.986729   3.591553   3.417079
    10  O    4.097242   3.537303   3.970967   2.893089   3.213639
    11  O    5.348890   5.225388   5.888372   4.664993   4.375142
    12  O    6.176488   5.636915   6.314392   4.261359   3.779883
    13  N    7.153987   6.497704   7.007400   5.163427   4.932440
    14  O    6.958041   6.242914   6.629588   5.032871   5.032111
    15  O    8.266552   7.613721   8.120580   6.243200   5.946613
    16  O    4.677123   4.119413   4.818296   2.803474   2.413741
    17  N    5.191432   4.880345   5.675668   3.775751   3.094049
    18  H    2.514101   2.627661   3.744793   2.061669   1.097197
    19  H    2.460564   2.635727   3.789454   2.085862   1.096253
    20  H    4.614691   4.511645   5.538464   3.358083   2.156547
    21  H    4.763075   3.991330   4.466083   2.700670   2.860077
                    6          7          8          9         10
     6  C    0.000000
     7  C    1.550484   0.000000
     8  O    2.422556   1.426516   0.000000
     9  N    3.362981   2.381046   1.410636   0.000000
    10  O    3.424519   2.574613   2.252361   1.228567   0.000000
    11  O    4.389442   3.459752   2.196267   1.227007   2.227518
    12  O    2.370762   1.441097   2.335306   3.493723   3.849534
    13  N    3.659458   2.372339   2.955142   3.782470   4.117375
    14  O    4.041596   2.534545   2.838731   3.195781   3.414507
    15  O    4.551335   3.465355   4.048306   4.961341   5.343913
    16  O    1.437460   2.412199   3.656993   4.548342   4.377549
    17  N    2.347442   3.627833   4.686124   5.705030   5.653879
    18  H    2.157238   3.520030   3.986862   4.474558   4.288479
    19  H    2.165363   2.842070   2.707500   2.915776   2.935210
    20  H    1.099970   2.158537   2.627280   3.796467   4.153773
    21  H    2.169000   1.098674   2.155154   2.528908   2.224315
                   11         12         13         14         15
    11  O    0.000000
    12  O    4.391201   0.000000
    13  N    4.552368   1.409392   0.000000
    14  O    3.920312   2.252483   1.230357   0.000000
    15  O    5.639783   2.198271   1.227465   2.229699   0.000000
    16  O    5.666002   2.720680   3.918265   4.464897   4.599552
    17  N    6.727318   3.715318   5.008757   5.731492   5.485861
    18  H    5.361501   4.527766   5.785648   6.014779   6.703405
    19  H    3.652612   4.117513   5.188811   5.164686   6.257578
    20  H    4.619257   2.576153   3.957264   4.519457   4.691585
    21  H    3.723218   2.067223   2.544038   2.362975   3.688949
                   16         17         18         19         20
    16  O    0.000000
    17  N    1.455264   0.000000
    18  H    2.650529   2.809774   0.000000
    19  H    3.362906   4.003399   1.788001   0.000000
    20  H    2.087258   2.387436   2.472312   2.480892   0.000000
    21  H    2.615812   4.029071   3.836369   3.245442   3.060694
                   21
    21  H    0.000000
 Stoichiometry    C3H4N4O10
 Framework group  C1[X(C3H4N4O10)]
 Deg. of freedom    57
 Full point group                 C1      NOp   1
 Largest Abelian subgroup         C1      NOp   1
 Largest concise Abelian subgroup C1      NOp   1
                         Standard orientation:                         
 ---------------------------------------------------------------------
 Center     Atomic      Atomic             Coordinates (Angstroms)
 Number     Number       Type             X           Y           Z
 ---------------------------------------------------------------------
      1          8           0        3.871436   -0.260290   -0.539817
      2          7           0        3.313783   -0.113553    0.548487
      3          8           0        3.727189   -0.319638    1.686377
      4          8           0        1.983449    0.375079    0.526452
      5          6           0        1.530821    0.675857   -0.792813
      6          6           0        0.084978    1.187976   -0.730410
      7          6           0       -0.923497    0.167567   -0.142411
      8          8           0       -0.983957   -0.968905   -1.002483
      9          7           0       -0.390891   -2.130587   -0.465214
     10          8           0        0.313715   -1.987533    0.531000
     11          8           0       -0.603129   -3.126921   -1.149188
     12          8           0       -2.193705    0.847625   -0.171591
     13          7           0       -3.176338    0.195922    0.600486
     14          8           0       -2.856128   -0.867997    1.128992
     15          8           0       -4.244578    0.800249    0.618390
     16          8           0        0.050975    2.360816    0.100000
     17          7           0        0.322131    3.523408   -0.732256
     18          1           0        2.169011    1.461817   -1.215687
     19          1           0        1.579564   -0.212067   -1.433894
     20          1           0       -0.244937    1.439170   -1.749229
     21          1           0       -0.660390   -0.023533    0.907037
 ---------------------------------------------------------------------
 Rotational constants (GHZ):           0.6377485           0.3254164           0.2506972
 Standard basis: 6-31G(d) (6D, 7F)
 There are   263 symmetry adapted cartesian basis functions of A   symmetry.
 There are   263 symmetry adapted basis functions of A   symmetry.
   263 basis functions,   492 primitive gaussians,   263 cartesian basis functions
    65 alpha electrons       65 beta electrons
       nuclear repulsion energy      1345.5171767031 Hartrees.
 NAtoms=   21 NActive=   21 NUniq=   21 SFac= 1.00D+00 NAtFMM=   60 NAOKFM=F Big=F
 Integral buffers will be    131072 words long.
 Raffenetti 1 integral format.
 Two-electron integral symmetry is turned on.
 One-electron integrals computed using PRISM.
 NBasis=   263 RedAO= T EigKep=  2.17D-03  NBF=   263
 NBsUse=   263 1.00D-06 EigRej= -1.00D+00 NBFU=   263
 ExpMin= 1.61D-01 ExpMax= 5.48D+03 ExpMxC= 8.25D+02 IAcc=3 IRadAn=         5 AccDes= 0.00D+00
 Harris functional with IExCor=  205 and IRadAn=       5 diagonalized for initial guess.
 HarFok:  IExCor=  205 AccDes= 0.00D+00 IRadAn=         5 IDoV= 1 UseB2=F ITyADJ=14
 ICtDFT=  3500011 ScaDFX=  1.000000  1.000000  1.000000  1.000000
 FoFCou: FMM=F IPFlag=           0 FMFlag=      100000 FMFlg1=           0
         NFxFlg=           0 DoJE=T BraDBF=F KetDBF=T FulRan=T
         wScrn=  0.000000 ICntrl=       500 IOpCl=  0 I1Cent=   200000004 NGrid=           0
         NMat0=    1 NMatS0=      1 NMatT0=    0 NMatD0=    1 NMtDS0=    0 NMtDT0=    0
 Petite list used in FoFCou.
 Requested convergence on RMS density matrix=1.00D-08 within 128 cycles.
 Requested convergence on MAX density matrix=1.00D-06.
 Requested convergence on             energy=1.00D-06.
 No special actions if energy rises.
 Integral accuracy reduced to 1.0D-05 until final iterations.
 Initial convergence to 1.0D-05 achieved.  Increase integral accuracy.
 SCF Done:  E(RHF) =  -1081.58206884     A.U. after   22 cycles
            NFock= 22  Conv=0.47D-08     -V/T= 2.0045

 **********************************************************************

            Population analysis using the SCF Density.

 **********************************************************************

 Orbital symmetries:
       Occupied  (A) (A) (A) (A) (A) (A) (A) (A) (A) (A) (A) (A)
                 (A) (A) (A) (A) (A) (A) (A) (A) (A) (A) (A) (A)
                 (A) (A) (A) (A) (A) (A) (A) (A) (A) (A) (A) (A)
                 (A) (A) (A) (A) (A) (A) (A) (A) (A) (A) (A) (A)
                 (A) (A) (A) (A) (A) (A) (A) (A) (A) (A) (A) (A)
                 (A) (A) (A) (A) (A)
       Virtual   (A) (A) (A) (A) (A) (A) (A) (A) (A) (A) (A) (A)
                 (A) (A) (A) (A) (A) (A) (A) (A) (A) (A) (A) (A)
                 (A) (A) (A) (A) (A) (A) (A) (A) (A) (A) (A) (A)
                 (A) (A) (A) (A) (A) (A) (A) (A) (A) (A) (A) (A)
                 (A) (A) (A) (A) (A) (A) (A) (A) (A) (A) (A) (A)
                 (A) (A) (A) (A) (A) (A) (A) (A) (A) (A) (A) (A)
                 (A) (A) (A) (A) (A) (A) (A) (A) (A) (A) (A) (A)
                 (A) (A) (A) (A) (A) (A) (A) (A) (A) (A) (A) (A)
                 (A) (A) (A) (A) (A) (A) (A) (A) (A) (A) (A) (A)
                 (A) (A) (A) (A) (A) (A) (A) (A) (A) (A) (A) (A)
                 (A) (A) (A) (A) (A) (A) (A) (A) (A) (A) (A) (A)
                 (A) (A) (A) (A) (A) (A) (A) (A) (A) (A) (A) (A)
                 (A) (A) (A) (A) (A) (A) (A) (A) (A) (A) (A) (A)
                 (A) (A) (A) (A) (A) (A) (A) (A) (A) (A) (A) (A)
                 (A) (A) (A) (A) (A) (A) (A) (A) (A) (A) (A) (A)
                 (A) (A) (A) (A) (A) (A) (A) (A) (A) (A) (A) (A)
                 (A) (A) (A) (A) (A) (A)
 The electronic state is 1-A.
 Alpha  occ. eigenvalues --  -20.73877 -20.73251 -20.71065 -20.71052 -20.68362
 Alpha  occ. eigenvalues --  -20.68324 -20.67794 -20.67680 -20.66645 -20.66399
 Alpha  occ. eigenvalues --  -15.97885 -15.97100 -15.95812 -15.74614 -11.44639
 Alpha  occ. eigenvalues --  -11.37916 -11.36285  -1.69960  -1.68912  -1.67380
 Alpha  occ. eigenvalues --   -1.51316  -1.48234  -1.47499  -1.46777  -1.45912
 Alpha  occ. eigenvalues --   -1.45530  -1.45331  -1.15155  -1.06847  -1.02803
 Alpha  occ. eigenvalues --   -0.97872  -0.95430  -0.91524  -0.87857  -0.86008
 Alpha  occ. eigenvalues --   -0.84345  -0.82768  -0.82034  -0.80190  -0.79926
 Alpha  occ. eigenvalues --   -0.79401  -0.78330  -0.77815  -0.73604  -0.70638
 Alpha  occ. eigenvalues --   -0.70331  -0.69010  -0.66906  -0.65273  -0.63086
 Alpha  occ. eigenvalues --   -0.61638  -0.59705  -0.57579  -0.57052  -0.56745
 Alpha  occ. eigenvalues --   -0.56068  -0.55087  -0.54476  -0.54417  -0.53807
 Alpha  occ. eigenvalues --   -0.52719  -0.51324  -0.50760  -0.49660  -0.46678
 Alpha virt. eigenvalues --    0.01835   0.04923   0.05628   0.06859   0.17052
 Alpha virt. eigenvalues --    0.17916   0.19723   0.23188   0.24258   0.25298
 Alpha virt. eigenvalues --    0.26576   0.28321   0.29418   0.31336   0.32991
 Alpha virt. eigenvalues --    0.38323   0.40172   0.40842   0.43713   0.44395
 Alpha virt. eigenvalues --    0.45105   0.54951   0.56300   0.57223   0.67964
 Alpha virt. eigenvalues --    0.69380   0.70714   0.72042   0.74669   0.75143
 Alpha virt. eigenvalues --    0.78201   0.78888   0.79854   0.81528   0.82599
 Alpha virt. eigenvalues --    0.83595   0.84622   0.85605   0.86684   0.87254
 Alpha virt. eigenvalues --    0.88270   0.89459   0.90583   0.91678   0.93068
 Alpha virt. eigenvalues --    0.96145   0.98048   1.00141   1.02450   1.03884
 Alpha virt. eigenvalues --    1.04437   1.04643   1.05371   1.05637   1.06857
 Alpha virt. eigenvalues --    1.08085   1.08723   1.11129   1.12002   1.14223
 Alpha virt. eigenvalues --    1.15338   1.16515   1.17453   1.18813   1.19126
 Alpha virt. eigenvalues --    1.20524   1.21248   1.21907   1.22683   1.23177
 Alpha virt. eigenvalues --    1.24390   1.24592   1.25757   1.26859   1.28783
 Alpha virt. eigenvalues --    1.30745   1.34275   1.36903   1.38434   1.39491
 Alpha virt. eigenvalues --    1.40858   1.41184   1.44998   1.46576   1.50721
 Alpha virt. eigenvalues --    1.54394   1.56290   1.57694   1.59885   1.60566
 Alpha virt. eigenvalues --    1.62056   1.62834   1.64769   1.66925   1.68023
 Alpha virt. eigenvalues --    1.69768   1.71007   1.72292   1.74095   1.79263
 Alpha virt. eigenvalues --    1.82312   1.84545   1.85796   1.88030   1.93529
 Alpha virt. eigenvalues --    1.93944   1.97428   1.98380   1.98682   2.00080
 Alpha virt. eigenvalues --    2.01315   2.02747   2.02958   2.03255   2.03727
 Alpha virt. eigenvalues --    2.04133   2.05019   2.05451   2.06777   2.07879
 Alpha virt. eigenvalues --    2.10047   2.10888   2.13298   2.15356   2.17319
 Alpha virt. eigenvalues --    2.19261   2.21387   2.23500   2.23841   2.24837
 Alpha virt. eigenvalues --    2.26592   2.28237   2.29619   2.30507   2.31651
 Alpha virt. eigenvalues --    2.34120   2.35073   2.35900   2.39463   2.39819
 Alpha virt. eigenvalues --    2.41946   2.42664   2.44537   2.45817   2.47298
 Alpha virt. eigenvalues --    2.50122   2.52788   2.57693   2.60481   2.61403
 Alpha virt. eigenvalues --    2.68764   2.72980   2.76159   2.80063   2.81964
 Alpha virt. eigenvalues --    2.84130   2.89612   2.94612   2.97493   2.98324
 Alpha virt. eigenvalues --    2.99594   3.00175   3.00815   3.03487   3.04756
 Alpha virt. eigenvalues --    3.05463   3.11652   3.14123   3.14686   3.15821
 Alpha virt. eigenvalues --    3.16483   3.16930   3.17868   3.19231   3.27823
 Alpha virt. eigenvalues --    3.33379   3.35046   3.35790   3.38730   3.40333
 Alpha virt. eigenvalues --    3.43323   3.77328   3.94889   3.96163   4.03656
 Alpha virt. eigenvalues --    4.13893   4.16534   4.17317   4.18427   4.21428
 Alpha virt. eigenvalues --    4.23008   4.28888   4.45123   4.48098   4.54842
 Alpha virt. eigenvalues --    4.67089   4.81699   4.99614
          Condensed to atoms (all electrons):
               1          2          3          4          5          6
     1  O    8.268288   0.322477  -0.073986  -0.086825   0.000426   0.000661
     2  N    0.322477   5.226694   0.376746   0.207061  -0.038767   0.002849
     3  O   -0.073986   0.376746   8.171108  -0.084044   0.003400  -0.000094
     4  O   -0.086825   0.207061  -0.084044   8.416303   0.129019  -0.041625
     5  C    0.000426  -0.038767   0.003400   0.129019   4.959721   0.329814
     6  C    0.000661   0.002849  -0.000094  -0.041625   0.329814   4.977460
     7  C   -0.000009  -0.000126   0.000000   0.002301  -0.058935   0.339587
     8  O    0.000001  -0.000003   0.000000  -0.000019   0.004790  -0.041059
     9  N   -0.000006  -0.000003   0.000002   0.000659  -0.001307   0.001494
    10  O   -0.000034   0.000627  -0.000023  -0.002951   0.003285  -0.001940
    11  O    0.000000   0.000000   0.000000   0.000004  -0.000070  -0.000022
    12  O    0.000000   0.000000   0.000000  -0.000012   0.001822  -0.045864
    13  N    0.000000   0.000000   0.000000   0.000001  -0.000025   0.002697
    14  O    0.000000   0.000000   0.000000   0.000000   0.000014   0.000437
    15  O    0.000000   0.000000   0.000000   0.000000   0.000000  -0.000131
    16  O   -0.000004  -0.000111   0.000001   0.002866  -0.047519   0.138200
    17  N   -0.000001  -0.000005   0.000000   0.000105  -0.004977  -0.053075
    18  H    0.001635  -0.002820  -0.000002  -0.032351   0.397776  -0.032142
    19  H    0.001750  -0.003582  -0.000006  -0.030733   0.389359  -0.036471
    20  H    0.000010  -0.000007   0.000000   0.001609  -0.037109   0.389011
    21  H    0.000005   0.000004   0.000004   0.002651  -0.003647  -0.032897
               7          8          9         10         11         12
     1  O   -0.000009   0.000001  -0.000006  -0.000034   0.000000   0.000000
     2  N   -0.000126  -0.000003  -0.000003   0.000627   0.000000   0.000000
     3  O    0.000000   0.000000   0.000002  -0.000023   0.000000   0.000000
     4  O    0.002301  -0.000019   0.000659  -0.002951   0.000004  -0.000012
     5  C   -0.058935   0.004790  -0.001307   0.003285  -0.000070   0.001822
     6  C    0.339587  -0.041059   0.001494  -0.001940  -0.000022  -0.045864
     7  C    4.713856   0.129275  -0.029700   0.000122   0.002071   0.149647
     8  O    0.129275   8.456703   0.185911  -0.089248  -0.082593  -0.031502
     9  N   -0.029700   0.185911   5.245693   0.315315   0.376564   0.001045
    10  O    0.000122  -0.089248   0.315315   8.262298  -0.075868   0.000104
    11  O    0.002071  -0.082593   0.376564  -0.075868   8.161994  -0.000022
    12  O    0.149647  -0.031502   0.001045   0.000104  -0.000022   8.433394
    13  N   -0.036730  -0.000229   0.000155  -0.000054   0.000010   0.193820
    14  O    0.004251  -0.003041   0.001491  -0.000088  -0.000103  -0.087514
    15  O    0.002984  -0.000098   0.000003   0.000000   0.000000  -0.083473
    16  O   -0.044358   0.000935  -0.000012   0.000009   0.000000   0.003178
    17  N    0.004298  -0.000025   0.000000   0.000000   0.000000   0.000065
    18  H    0.004214  -0.000017   0.000002   0.000056  -0.000001  -0.000027
    19  H   -0.004058   0.001868  -0.000767   0.000140  -0.000119  -0.000004
    20  H   -0.028314   0.000351   0.000070  -0.000017   0.000000  -0.000729
    21  H    0.387925  -0.023793  -0.002593   0.004260   0.000037  -0.028741
              13         14         15         16         17         18
     1  O    0.000000   0.000000   0.000000  -0.000004  -0.000001   0.001635
     2  N    0.000000   0.000000   0.000000  -0.000111  -0.000005  -0.002820
     3  O    0.000000   0.000000   0.000000   0.000001   0.000000  -0.000002
     4  O    0.000001   0.000000   0.000000   0.002866   0.000105  -0.032351
     5  C   -0.000025   0.000014   0.000000  -0.047519  -0.004977   0.397776
     6  C    0.002697   0.000437  -0.000131   0.138200  -0.053075  -0.032142
     7  C   -0.036730   0.004251   0.002984  -0.044358   0.004298   0.004214
     8  O   -0.000229  -0.003041  -0.000098   0.000935  -0.000025  -0.000017
     9  N    0.000155   0.001491   0.000003  -0.000012   0.000000   0.000002
    10  O   -0.000054  -0.000088   0.000000   0.000009   0.000000   0.000056
    11  O    0.000010  -0.000103   0.000000   0.000000   0.000000  -0.000001
    12  O    0.193820  -0.087514  -0.083473   0.003178   0.000065  -0.000027
    13  N    5.227356   0.321569   0.376106  -0.000076   0.000003   0.000001
    14  O    0.321569   8.270156  -0.074609  -0.000004   0.000000   0.000000
    15  O    0.376106  -0.074609   8.165276   0.000003   0.000000   0.000000
    16  O   -0.000076  -0.000004   0.000003   8.307144   0.138504  -0.002604
    17  N    0.000003   0.000000   0.000000   0.138504   6.777312   0.004078
    18  H    0.000001   0.000000   0.000000  -0.002604   0.004078   0.458294
    19  H   -0.000002   0.000000   0.000000   0.002760  -0.000038  -0.026271
    20  H   -0.000158  -0.000011  -0.000002  -0.022501   0.001314  -0.001713
    21  H   -0.003539   0.002376  -0.000020   0.002129  -0.000113   0.000000
              19         20         21
     1  O    0.001750   0.000010   0.000005
     2  N   -0.003582  -0.000007   0.000004
     3  O   -0.000006   0.000000   0.000004
     4  O   -0.030733   0.001609   0.002651
     5  C    0.389359  -0.037109  -0.003647
     6  C   -0.036471   0.389011  -0.032897
     7  C   -0.004058  -0.028314   0.387925
     8  O    0.001868   0.000351  -0.023793
     9  N   -0.000767   0.000070  -0.002593
    10  O    0.000140  -0.000017   0.004260
    11  O   -0.000119   0.000000   0.000037
    12  O   -0.000004  -0.000729  -0.028741
    13  N   -0.000002  -0.000158  -0.003539
    14  O    0.000000  -0.000011   0.002376
    15  O    0.000000  -0.000002  -0.000020
    16  O    0.002760  -0.022501   0.002129
    17  N   -0.000038   0.001314  -0.000113
    18  H   -0.026271  -0.001713   0.000000
    19  H    0.481368   0.001052   0.000429
    20  H    0.001052   0.443956   0.002912
    21  H    0.000429   0.002912   0.380165
 Mulliken charges:
               1
     1  O   -0.434388
     2  N    0.908967
     3  O   -0.393106
     4  O   -0.484018
     5  C   -0.027069
     6  C    0.103111
     7  C    0.461699
     8  O   -0.508205
     9  N    0.905983
    10  O   -0.415991
    11  O   -0.381883
    12  O   -0.505185
    13  N    0.919095
    14  O   -0.434924
    15  O   -0.386040
    16  O   -0.478541
    17  N    0.132554
    18  H    0.231893
    19  H    0.223323
    20  H    0.250277
    21  H    0.312447
 Sum of Mulliken charges =   0.00000
 Mulliken charges with hydrogens summed into heavy atoms:
               1
     1  O   -0.434388
     2  N    0.908967
     3  O   -0.393106
     4  O   -0.484018
     5  C    0.428147
     6  C    0.353389
     7  C    0.774146
     8  O   -0.508205
     9  N    0.905983
    10  O   -0.415991
    11  O   -0.381883
    12  O   -0.505185
    13  N    0.919095
    14  O   -0.434924
    15  O   -0.386040
    16  O   -0.478541
    17  N    0.132554
 Electronic spatial extent (au):  <R**2>=           4163.8438
 Charge=              0.0000 electrons
 Dipole moment (field-independent basis, Debye):
    X=              0.1360    Y=              2.1269    Z=             -3.0499  Tot=              3.7208
 Quadrupole moment (field-independent basis, Debye-Ang):
   XX=           -114.9763   YY=           -104.6658   ZZ=            -96.4748
   XY=              4.0025   XZ=             -3.1991   YZ=             -3.2369
 Traceless Quadrupole moment (field-independent basis, Debye-Ang):
   XX=             -9.6040   YY=              0.7065   ZZ=              8.8975
   XY=              4.0025   XZ=             -3.1991   YZ=             -3.2369
 Octapole moment (field-independent basis, Debye-Ang**2):
  XXX=             -6.8658  YYY=             -8.8806  ZZZ=              0.4365  XYY=              9.7023
  XXY=              5.0094  XXZ=            -18.0504  XZZ=             -8.0670  YZZ=              4.6263
  YYZ=              1.0228  XYZ=              0.6252
 Hexadecapole moment (field-independent basis, Debye-Ang**3):
 XXXX=          -3476.3178 YYYY=          -1594.4474 ZZZZ=           -435.3964 XXXY=             88.8828
 XXXZ=             28.9934 YYYX=            -14.7405 YYYZ=            -29.1454 ZZZX=            -16.9757
 ZZZY=              8.2543 XXYY=           -732.3191 XXZZ=           -619.3120 YYZZ=           -325.5852
 XXYZ=              9.0274 YYXZ=             -3.1316 ZZXY=            -10.6630
 N-N= 1.345517176703D+03 E-N=-5.236085100344D+03  KE= 1.076694960853D+03
 Calling FoFJK, ICntrl=      2127 FMM=F ISym2X=0 I1Cent= 0 IOpClX= 0 NMat=1 NMatS=1 NMatT=0.
 ***** Axes restored to original set *****
 -------------------------------------------------------------------
 Center     Atomic                   Forces (Hartrees/Bohr)
 Number     Number              X              Y              Z
 -------------------------------------------------------------------
      1        8          -0.058035240    0.009224973   -0.065338600
      2        7           0.004893417    0.017671398   -0.013169982
      3        8           0.012003571   -0.065487158    0.076931431
      4        8           0.039225420    0.032043586    0.004720486
      5        6           0.004699145   -0.004087867    0.014284670
      6        6          -0.004960907   -0.000106519   -0.003522254
      7        6           0.004994575   -0.016266944   -0.028314824
      8        8          -0.004597423    0.039620590   -0.021570076
      9        7           0.007060858    0.030686427    0.021986431
     10        8          -0.025415872   -0.037554823    0.075940302
     11        8           0.017127101   -0.034613185   -0.095530299
     12        8          -0.029336918    0.038643244    0.007301199
     13        7          -0.032289792   -0.010901738   -0.001224953
     14        8           0.012525864   -0.085181018   -0.005771761
     15        8           0.062152710    0.081183086    0.011868464
     16        8           0.079568001   -0.098696782    0.028803321
     17        7          -0.079541390    0.096442272   -0.013178505
     18        1          -0.012180939    0.004364984    0.004000829
     19        1           0.001911016   -0.003675096   -0.012315229
     20        1           0.000952092    0.009820906   -0.011418730
     21        1          -0.000755291   -0.003130336    0.025518077
 -------------------------------------------------------------------
 Cartesian Forces:  Max     0.098696782 RMS     0.039854790

 GradGradGradGradGradGradGradGradGradGradGradGradGradGradGradGradGradGrad
 Berny optimization.
 FormGI is forming the generalized inverse of G from B-inverse, IUseBI=4.
 Internal  Forces:  Max     0.125329168 RMS     0.030275089
 Search for a local minimum.
 Step number   1 out of a maximum of  100
 All quantities printed in internal units (Hartrees-Bohrs-Radians)
 Mixed Optimization -- RFO/linear search
 Second derivative matrix not updated -- first step.
 ITU=  0
     Eigenvalues ---    0.00230   0.00301   0.01065   0.01148   0.01154
     Eigenvalues ---    0.01171   0.01196   0.01337   0.01341   0.02898
     Eigenvalues ---    0.02935   0.02979   0.04119   0.04819   0.05174
     Eigenvalues ---    0.05588   0.05908   0.07037   0.07431   0.08867
     Eigenvalues ---    0.11208   0.13705   0.16936   0.17647   0.19594
     Eigenvalues ---    0.20174   0.22062   0.24951   0.24999   0.25000
     Eigenvalues ---    0.25000   0.25000   0.25000   0.25000   0.25000
     Eigenvalues ---    0.25000   0.25000   0.27610   0.28955   0.33685
     Eigenvalues ---    0.33829   0.33994   0.34100   0.37564   0.39435
     Eigenvalues ---    0.39936   0.41450   0.41494   0.42854   0.43902
     Eigenvalues ---    0.44099   0.90410   0.90938   0.91686   0.91893
     Eigenvalues ---    0.92151   0.92345
 RFO step:  Lambda=-1.12977192D-01 EMin= 2.30000000D-03
 Linear search not attempted -- first point.
 Maximum step size (   0.300) exceeded in Quadratic search.
    -- Step size scaled by   0.716
 Iteration  1 RMS(Cart)=  0.06645991 RMS(Int)=  0.00132738
 Iteration  2 RMS(Cart)=  0.00266207 RMS(Int)=  0.00010640
 Iteration  3 RMS(Cart)=  0.00000385 RMS(Int)=  0.00010636
 Iteration  4 RMS(Cart)=  0.00000000 RMS(Int)=  0.00010636
 Variable       Old X    -DE/DX   Delta X   Delta X   Delta X     New X
                                 (Linear)    (Quad)   (Total)
    R1        2.32744  -0.08774   0.00000  -0.06178  -0.06178   2.26566
    R2        2.32073  -0.10170   0.00000  -0.07058  -0.07058   2.25015
    R3        2.67851  -0.05640   0.00000  -0.07459  -0.07459   2.60392
    R4        2.69629  -0.00650   0.00000  -0.00882  -0.00882   2.68747
    R5        2.90097  -0.01178   0.00000  -0.02096  -0.02096   2.88002
    R6        2.07340  -0.01325   0.00000  -0.02095  -0.02095   2.05245
    R7        2.07162  -0.01269   0.00000  -0.02001  -0.02001   2.05160
    R8        2.92999  -0.01082   0.00000  -0.01992  -0.01992   2.91007
    R9        2.71641  -0.01316   0.00000  -0.01840  -0.01840   2.69801
   R10        2.07864  -0.01472   0.00000  -0.02344  -0.02344   2.05520
   R11        2.69572  -0.01811   0.00000  -0.02457  -0.02457   2.67115
   R12        2.72328  -0.02757   0.00000  -0.03892  -0.03892   2.68436
   R13        2.07619  -0.02096   0.00000  -0.03326  -0.03326   2.04293
   R14        2.66571  -0.04132   0.00000  -0.05361  -0.05361   2.61211
   R15        2.32165  -0.08813   0.00000  -0.06128  -0.06128   2.26037
   R16        2.31871  -0.10299   0.00000  -0.07116  -0.07116   2.24754
   R17        2.66337  -0.04513   0.00000  -0.05834  -0.05834   2.60503
   R18        2.32504  -0.08617   0.00000  -0.06036  -0.06036   2.26468
   R19        2.31957  -0.10291   0.00000  -0.07124  -0.07124   2.24833
   R20        2.75005  -0.12533   0.00000  -0.18369  -0.18369   2.56636
    A1        2.27356  -0.00599   0.00000  -0.01181  -0.01181   2.26175
    A2        2.04014   0.00533   0.00000   0.01052   0.01052   2.05065
    A3        1.96948   0.00066   0.00000   0.00130   0.00130   1.97078
    A4        1.96577   0.00942   0.00000   0.01858   0.01858   1.98435
    A5        1.90871  -0.01415   0.00000  -0.03087  -0.03085   1.87786
    A6        1.89954   0.00576   0.00000   0.01229   0.01216   1.91170
    A7        1.93464   0.00311   0.00000   0.00568   0.00579   1.94042
    A8        1.90130   0.00059   0.00000  -0.00132  -0.00134   1.89997
    A9        1.91331   0.00677   0.00000   0.01687   0.01691   1.93021
   A10        1.90599  -0.00211   0.00000  -0.00276  -0.00282   1.90317
   A11        1.99156   0.00089   0.00000   0.00233   0.00236   1.99393
   A12        1.89436   0.00574   0.00000   0.01463   0.01465   1.90901
   A13        1.89760  -0.00290   0.00000  -0.00702  -0.00703   1.89057
   A14        1.87811  -0.00624   0.00000  -0.01574  -0.01575   1.86237
   A15        1.88228   0.00272   0.00000   0.00721   0.00720   1.88947
   A16        1.91947  -0.00028   0.00000  -0.00167  -0.00164   1.91783
   A17        1.89994   0.00627   0.00000   0.01196   0.01179   1.91173
   A18        1.82869  -0.00401   0.00000  -0.00954  -0.00956   1.81914
   A19        1.89753   0.00950   0.00000   0.03725   0.03720   1.93474
   A20        1.90328  -0.00885   0.00000  -0.03090  -0.03098   1.87230
   A21        2.03475  -0.00783   0.00000  -0.02453  -0.02489   2.00985
   A22        1.88862   0.00520   0.00000   0.01707   0.01667   1.90529
   A23        1.99174   0.02267   0.00000   0.04473   0.04473   2.03647
   A24        2.04212   0.00971   0.00000   0.01949   0.01943   2.06155
   A25        1.96456  -0.00384   0.00000  -0.00726  -0.00733   1.95723
   A26        2.27281  -0.00553   0.00000  -0.01055  -0.01062   2.26220
   A27        1.96625   0.01187   0.00000   0.02341   0.02341   1.98966
   A28        2.04172   0.00530   0.00000   0.01047   0.01046   2.05218
   A29        1.96828  -0.00025   0.00000  -0.00048  -0.00049   1.96779
   A30        2.27309  -0.00503   0.00000  -0.00992  -0.00992   2.26317
   A31        1.89340   0.02668   0.00000   0.05265   0.05265   1.94604
    D1        3.13615   0.00024   0.00000   0.00117   0.00117   3.13731
    D2       -0.04637   0.00037   0.00000   0.00215   0.00215  -0.04423
    D3        3.09056   0.00054   0.00000   0.00308   0.00309   3.09365
    D4        3.13508   0.00162   0.00000   0.00479   0.00485   3.13994
    D5       -1.07288  -0.00252   0.00000  -0.00758  -0.00765  -1.08054
    D6        1.02360   0.00047   0.00000   0.00036   0.00037   1.02397
    D7       -1.06337   0.00110   0.00000   0.00004   0.00010  -1.06327
    D8        1.03059  -0.00219   0.00000  -0.00808  -0.00799   1.02259
    D9        3.11825  -0.00088   0.00000  -0.00565  -0.00558   3.11268
   D10       -3.13749   0.00205   0.00000   0.00400   0.00396  -3.13353
   D11       -1.04354  -0.00124   0.00000  -0.00412  -0.00413  -1.04767
   D12        1.04413   0.00008   0.00000  -0.00169  -0.00172   1.04241
   D13        1.06102   0.00023   0.00000  -0.00189  -0.00194   1.05908
   D14       -3.12821  -0.00306   0.00000  -0.01001  -0.01004  -3.13825
   D15       -1.04054  -0.00174   0.00000  -0.00758  -0.00762  -1.04817
   D16       -1.11220  -0.00233   0.00000  -0.01133  -0.01149  -1.12368
   D17        3.13701   0.00704   0.00000   0.02368   0.02372  -3.12245
   D18        1.12102  -0.00124   0.00000  -0.00807  -0.00797   1.11305
   D19        3.06794  -0.00573   0.00000  -0.02019  -0.02035   3.04759
   D20        1.03396   0.00363   0.00000   0.01481   0.01486   1.04882
   D21       -0.98203  -0.00465   0.00000  -0.01693  -0.01683  -0.99886
   D22        0.99791  -0.00349   0.00000  -0.01360  -0.01374   0.98417
   D23       -1.03606   0.00587   0.00000   0.02140   0.02146  -1.01460
   D24       -3.05205  -0.00241   0.00000  -0.01034  -0.01023  -3.06228
   D25        1.53406  -0.00009   0.00000   0.00037   0.00041   1.53446
   D26       -2.58585   0.00062   0.00000   0.00239   0.00233  -2.58351
   D27       -0.53988   0.00014   0.00000   0.00109   0.00110  -0.53877
   D28        1.90202   0.01057   0.00000   0.04649   0.04630   1.94833
   D29       -2.39550   0.00449   0.00000   0.02530   0.02497  -2.37052
   D30       -0.25133  -0.00154   0.00000   0.00483   0.00535  -0.24598
   D31       -2.90427  -0.00299   0.00000  -0.01469  -0.01460  -2.91888
   D32        1.34724  -0.00404   0.00000  -0.00920  -0.00944   1.33781
   D33       -0.88210   0.00827   0.00000   0.03100   0.03115  -0.85095
   D34       -0.23143   0.00202   0.00000   0.01062   0.01067  -0.22076
   D35        2.99283  -0.00148   0.00000  -0.00749  -0.00754   2.98529
   D36       -3.04156  -0.00454   0.00000  -0.02253  -0.02250  -3.06406
   D37       -0.05900   0.00124   0.00000   0.00690   0.00691  -0.05209
   D38        3.09623   0.00040   0.00000   0.00252   0.00250   3.09873
   D39       -3.12512  -0.00109   0.00000  -0.00542  -0.00541  -3.13053
         Item               Value     Threshold  Converged?
 Maximum Force            0.125329     0.000450     NO 
 RMS     Force            0.030275     0.000300     NO 
 Maximum Displacement     0.197909     0.001800     NO 
 RMS     Displacement     0.065922     0.001200     NO 
 Predicted change in Energy=-5.744848D-02
 GradGradGradGradGradGradGradGradGradGradGradGradGradGradGradGradGradGrad

                          Input orientation:                          
 ---------------------------------------------------------------------
 Center     Atomic      Atomic             Coordinates (Angstroms)
 Number     Number       Type             X           Y           Z
 ---------------------------------------------------------------------
      1          8           0        3.284021    1.836416   -0.282495
      2          7           0        2.442439    1.865915   -1.135913
      3          8           0        2.307890    2.625452   -2.043013
      4          8           0        1.468706    0.891506   -1.103040
      5          6           0        1.648493   -0.061256   -0.062643
      6          6           0        0.503699   -1.063266   -0.152736
      7          6           0       -0.894514   -0.443839    0.028187
      8          8           0       -1.014220    0.078948    1.336003
      9          7           0       -1.091290    1.454351    1.449977
     10          8           0       -0.823865    2.115454    0.489680
     11          8           0       -1.359768    1.798110    2.556458
     12          8           0       -1.781200   -1.549539   -0.066900
     13          7           0       -3.105783   -1.195360   -0.209581
     14          8           0       -3.373853   -0.027608   -0.183175
     15          8           0       -3.822841   -2.136611   -0.333750
     16          8           0        0.515346   -1.681393   -1.439664
     17          7           0        1.315102   -2.778845   -1.457495
     18          1           0        2.587501   -0.586830   -0.209849
     19          1           0        1.660074    0.418761    0.911067
     20          1           0        0.645872   -1.815177    0.620061
     21          1           0       -1.111809    0.254812   -0.767669
 ---------------------------------------------------------------------
                    Distance matrix (angstroms):
                    1          2          3          4          5
     1  O    0.000000
     2  N    1.198938   0.000000
     3  O    2.162136   1.190727   0.000000
     4  O    2.204885   1.377936   2.143443   0.000000
     5  C    2.514845   2.344407   3.402215   1.422148   0.000000
     6  C    4.019352   3.647664   4.520497   2.378120   1.524040
     7  C    4.770351   4.222007   4.895489   2.940686   2.573229
     8  O    4.917633   4.610001   5.379484   3.574088   3.010966
     9  N    4.721312   4.398119   5.012672   3.658999   3.477283
    10  O    4.189134   3.656988   4.059867   3.048063   3.340012
    11  O    5.442968   5.300469   5.940652   4.713186   4.400746
    12  O    6.096527   5.535995   6.168974   4.194542   3.738690
    13  N    7.072947   6.404081   6.875168   5.106783   4.889880
    14  O    6.914604   6.190508   6.540637   5.014111   5.023906
    15  O    8.142178   7.477794   7.948879   6.145061   5.857994
    16  O    4.623806   4.048375   4.703845   2.764421   2.409368
    17  N    5.153436   4.790418   5.525838   3.690625   3.072792
    18  H    2.522407   2.625756   3.709100   2.057904   1.086109
    19  H    2.464050   2.626114   3.743760   2.077676   1.085662
    20  H    4.594407   4.456628   5.438148   3.312441   2.132504
    21  H    4.696827   3.919685   4.352100   2.678976   2.866396
                    6          7          8          9         10
     6  C    0.000000
     7  C    1.539942   0.000000
     8  O    2.413519   1.413513   0.000000
     9  N    3.383944   2.379777   1.382268   0.000000
    10  O    3.504196   2.601529   2.213562   1.196137   0.000000
    11  O    4.358866   3.411004   2.136453   1.189348   2.158581
    12  O    2.337647   1.420502   2.282184   3.435150   3.828636
    13  N    3.612345   2.347558   2.896087   3.719312   4.081373
    14  O    4.013592   2.522904   2.808402   3.173876   3.398219
    15  O    4.461365   3.401701   3.947800   4.851605   5.268012
    16  O    1.427725   2.381981   3.625287   4.556775   4.464516
    17  N    2.303038   3.541455   4.625619   5.671338   5.685142
    18  H    2.138337   3.493069   3.975590   4.522714   4.407845
    19  H    2.159928   2.837160   2.729083   2.988791   3.037480
    20  H    1.087565   2.145616   2.618432   3.794247   4.198451
    21  H    2.173784   1.081073   2.113265   2.521363   2.264029
                   11         12         13         14         15
    11  O    0.000000
    12  O    4.273917   0.000000
    13  N    4.434005   1.378521   0.000000
    14  O    3.859453   2.205978   1.198417   0.000000
    15  O    5.468277   2.141065   1.189767   2.161517   0.000000
    16  O    5.620675   2.678804   3.855115   4.409041   4.500015
    17  N    6.649456   3.609991   4.858903   5.583861   5.298464
    18  H    5.377855   4.475801   5.725713   5.987586   6.596185
    19  H    3.705315   4.083258   5.155059   5.170787   6.175909
    20  H    4.563778   2.536366   3.891965   4.471999   4.580662
    21  H    3.673292   2.048132   2.527923   2.353347   3.641000
                   16         17         18         19         20
    16  O    0.000000
    17  N    1.358061   0.000000
    18  H    2.646571   2.824987   0.000000
    19  H    3.353653   3.994218   1.768555   0.000000
    20  H    2.068188   2.385951   2.442849   2.470581   0.000000
    21  H    2.616887   3.945736   3.834633   3.244745   3.049604
                   21
    21  H    0.000000
 Stoichiometry    C3H4N4O10
 Framework group  C1[X(C3H4N4O10)]
 Deg. of freedom    57
 Full point group                 C1      NOp   1
 Largest Abelian subgroup         C1      NOp   1
 Largest concise Abelian subgroup C1      NOp   1
                         Standard orientation:                         
 ---------------------------------------------------------------------
 Center     Atomic      Atomic             Coordinates (Angstroms)
 Number     Number       Type             X           Y           Z
 ---------------------------------------------------------------------
      1          8           0        3.857905   -0.324809   -0.494233
      2          7           0        3.286486   -0.132909    0.542158
      3          8           0        3.663464   -0.301291    1.659013
      4          8           0        2.001339    0.360057    0.478205
      5          6           0        1.556384    0.625770   -0.846149
      6          6           0        0.131218    1.158056   -0.755204
      7          6           0       -0.871506    0.175631   -0.122111
      8          8           0       -0.996756   -0.967258   -0.944386
      9          7           0       -0.494953   -2.152513   -0.440373
     10          8           0        0.204753   -2.101740    0.528430
     11          8           0       -0.790983   -3.087012   -1.113892
     12          8           0       -2.112294    0.865734   -0.167161
     13          7           0       -3.103555    0.287415    0.596559
     14          8           0       -2.843383   -0.738284    1.159102
     15          8           0       -4.118381    0.908216    0.579813
     16          8           0        0.116130    2.336289    0.050984
     17          7           0        0.354263    3.449334   -0.689795
     18          1           0        2.187490    1.387033   -1.295389
     19          1           0        1.591116   -0.269908   -1.458699
     20          1           0       -0.210669    1.393304   -1.760475
     21          1           0       -0.614567   -0.025666    0.908510
 ---------------------------------------------------------------------
 Rotational constants (GHZ):           0.6464419           0.3341688           0.2558186
 Standard basis: 6-31G(d) (6D, 7F)
 There are   263 symmetry adapted cartesian basis functions of A   symmetry.
 There are   263 symmetry adapted basis functions of A   symmetry.
   263 basis functions,   492 primitive gaussians,   263 cartesian basis functions
    65 alpha electrons       65 beta electrons
       nuclear repulsion energy      1363.8711665458 Hartrees.
 NAtoms=   21 NActive=   21 NUniq=   21 SFac= 1.00D+00 NAtFMM=   60 NAOKFM=F Big=F
 Integral buffers will be    131072 words long.
 Raffenetti 1 integral format.
 Two-electron integral symmetry is turned on.
 One-electron integrals computed using PRISM.
 NBasis=   263 RedAO= T EigKep=  1.96D-03  NBF=   263
 NBsUse=   263 1.00D-06 EigRej= -1.00D+00 NBFU=   263
 Initial guess from the checkpoint file:  "C:\g16w\Scratch\Gau-11756.chk"
 B after Tr=     0.000000    0.000000    0.000000
         Rot=    0.999901    0.006604   -0.001556    0.012354 Ang=   1.62 deg.
 ExpMin= 1.61D-01 ExpMax= 5.48D+03 ExpMxC= 8.25D+02 IAcc=3 IRadAn=         5 AccDes= 0.00D+00
 Harris functional with IExCor=  205 and IRadAn=       5 diagonalized for initial guess.
 HarFok:  IExCor=  205 AccDes= 0.00D+00 IRadAn=         5 IDoV= 1 UseB2=F ITyADJ=14
 ICtDFT=  3500011 ScaDFX=  1.000000  1.000000  1.000000  1.000000
 FoFCou: FMM=F IPFlag=           0 FMFlag=      100000 FMFlg1=           0
         NFxFlg=           0 DoJE=T BraDBF=F KetDBF=T FulRan=T
         wScrn=  0.000000 ICntrl=       500 IOpCl=  0 I1Cent=   200000004 NGrid=           0
         NMat0=    1 NMatS0=      1 NMatT0=    0 NMatD0=    1 NMtDS0=    0 NMtDT0=    0
 Petite list used in FoFCou.
 Requested convergence on RMS density matrix=1.00D-08 within 128 cycles.
 Requested convergence on MAX density matrix=1.00D-06.
 Requested convergence on             energy=1.00D-06.
 No special actions if energy rises.
 Integral accuracy reduced to 1.0D-05 until final iterations.
 Initial convergence to 1.0D-05 achieved.  Increase integral accuracy.
 SCF Done:  E(RHF) =  -1081.64444139     A.U. after   19 cycles
            NFock= 19  Conv=0.60D-08     -V/T= 2.0033
 Calling FoFJK, ICntrl=      2127 FMM=F ISym2X=0 I1Cent= 0 IOpClX= 0 NMat=1 NMatS=1 NMatT=0.
 ***** Axes restored to original set *****
 -------------------------------------------------------------------
 Center     Atomic                   Forces (Hartrees/Bohr)
 Number     Number              X              Y              Z
 -------------------------------------------------------------------
      1        8          -0.022738162    0.001262107   -0.023564328
      2        7          -0.005217372    0.005022533   -0.010476132
      3        8           0.005779089   -0.024220762    0.031071383
      4        8           0.022284043    0.017484447    0.004496384
      5        6           0.000224075   -0.004296100    0.005913436
      6        6          -0.005733093    0.005825997    0.003146345
      7        6           0.002670239   -0.013965354   -0.015956717
      8        8           0.000591900    0.021265374   -0.011028483
      9        7           0.002362152    0.009871102    0.015442663
     10        8          -0.009902564   -0.020023657    0.025631970
     11        8           0.006783987   -0.011799037   -0.039159529
     12        8          -0.014645156    0.021781311    0.003677980
     13        7          -0.013192882   -0.011317205   -0.000287985
     14        8           0.007428140   -0.031994032   -0.001915376
     15        8           0.024652487    0.033684896    0.004231849
     16        8           0.059116587   -0.079134539    0.012212324
     17        7          -0.056687502    0.074045258   -0.006394447
     18        1          -0.004659131    0.001834156    0.001671699
     19        1           0.000337813   -0.000835055   -0.005412133
     20        1           0.000692216    0.002491564   -0.006092113
     21        1          -0.000146866    0.003016995    0.012791207
 -------------------------------------------------------------------
 Cartesian Forces:  Max     0.079134539 RMS     0.022106032

 GradGradGradGradGradGradGradGradGradGradGradGradGradGradGradGradGradGrad
 Berny optimization.
 Using GEDIIS/GDIIS optimizer.
 FormGI is forming the generalized inverse of G from B-inverse, IUseBI=4.
 Internal  Forces:  Max     0.093135220 RMS     0.014961492
 Search for a local minimum.
 Step number   2 out of a maximum of  100
 All quantities printed in internal units (Hartrees-Bohrs-Radians)
 Mixed Optimization -- RFO/linear search
 Update second derivatives using D2CorX and points    1    2
 DE= -6.24D-02 DEPred=-5.74D-02 R= 1.09D+00
 TightC=F SS=  1.41D+00  RLast= 3.12D-01 DXNew= 5.0454D-01 9.3714D-01
 Trust test= 1.09D+00 RLast= 3.12D-01 DXMaxT set to 5.05D-01
 ITU=  1  0
 Use linear search instead of GDIIS.
     Eigenvalues ---    0.00230   0.00301   0.01065   0.01148   0.01154
     Eigenvalues ---    0.01170   0.01196   0.01337   0.01349   0.02883
     Eigenvalues ---    0.02928   0.02964   0.04100   0.04808   0.05325
     Eigenvalues ---    0.05334   0.05905   0.07244   0.07460   0.09162
     Eigenvalues ---    0.11038   0.13586   0.16971   0.17733   0.19567
     Eigenvalues ---    0.19942   0.22015   0.23104   0.24972   0.24999
     Eigenvalues ---    0.25000   0.25000   0.25000   0.25000   0.25000
     Eigenvalues ---    0.25000   0.25700   0.27565   0.28949   0.29302
     Eigenvalues ---    0.33710   0.33924   0.34052   0.34269   0.39538
     Eigenvalues ---    0.40054   0.41456   0.41547   0.43073   0.43911
     Eigenvalues ---    0.44563   0.90575   0.91146   0.91753   0.92002
     Eigenvalues ---    0.92268   0.97978
 RFO step:  Lambda=-1.37391938D-02 EMin= 2.30069488D-03
 Quartic linear search produced a step of  0.78743.
 Iteration  1 RMS(Cart)=  0.11316671 RMS(Int)=  0.01219908
 Iteration  2 RMS(Cart)=  0.01243723 RMS(Int)=  0.00018578
 Iteration  3 RMS(Cart)=  0.00009356 RMS(Int)=  0.00017923
 Iteration  4 RMS(Cart)=  0.00000002 RMS(Int)=  0.00017923
 Variable       Old X    -DE/DX   Delta X   Delta X   Delta X     New X
                                 (Linear)    (Quad)   (Total)
    R1        2.26566  -0.03277  -0.04865   0.00674  -0.04190   2.22376
    R2        2.25015  -0.03977  -0.05558   0.00412  -0.05146   2.19869
    R3        2.60392  -0.02828  -0.05873  -0.00990  -0.06864   2.53529
    R4        2.68747  -0.00143  -0.00694   0.00648  -0.00046   2.68701
    R5        2.88002  -0.00524  -0.01650   0.00318  -0.01332   2.86670
    R6        2.05245  -0.00514  -0.01650   0.00592  -0.01058   2.04187
    R7        2.05160  -0.00522  -0.01576   0.00414  -0.01162   2.03999
    R8        2.91007  -0.00656  -0.01569  -0.00734  -0.02302   2.88704
    R9        2.69801  -0.00302  -0.01449   0.01327  -0.00121   2.69680
   R10        2.05520  -0.00596  -0.01846   0.00544  -0.01302   2.04218
   R11        2.67115  -0.00867  -0.01935  -0.00138  -0.02073   2.65042
   R12        2.68436  -0.01249  -0.03065   0.00136  -0.02928   2.65508
   R13        2.04293  -0.00744  -0.02619   0.01297  -0.01322   2.02971
   R14        2.61211  -0.02164  -0.04221  -0.01101  -0.05322   2.55889
   R15        2.26037  -0.03386  -0.04826   0.00475  -0.04350   2.21687
   R16        2.24754  -0.04137  -0.05604   0.00203  -0.05401   2.19353
   R17        2.60503  -0.02083  -0.04594  -0.00104  -0.04698   2.55805
   R18        2.26468  -0.03288  -0.04753   0.00518  -0.04234   2.22234
   R19        2.24833  -0.04195  -0.05610   0.00089  -0.05521   2.19312
   R20        2.56636  -0.09314  -0.14464  -0.15762  -0.30226   2.26410
    A1        2.26175  -0.00182  -0.00930   0.00812  -0.00118   2.26057
    A2        2.05065  -0.00051   0.00828  -0.02166  -0.01338   2.03727
    A3        1.97078   0.00234   0.00102   0.01355   0.01457   1.98534
    A4        1.98435   0.00947   0.01463   0.03184   0.04647   2.03083
    A5        1.87786  -0.00644  -0.02429   0.00632  -0.01802   1.85984
    A6        1.91170   0.00286   0.00958   0.00771   0.01727   1.92897
    A7        1.94042   0.00075   0.00456  -0.01765  -0.01313   1.92729
    A8        1.89997   0.00069  -0.00105   0.01386   0.01283   1.91279
    A9        1.93021   0.00296   0.01331  -0.01216   0.00098   1.93119
   A10        1.90317  -0.00081  -0.00222   0.00271   0.00044   1.90361
   A11        1.99393  -0.00225   0.00186  -0.02249  -0.02057   1.97336
   A12        1.90901   0.00323   0.01154  -0.00439   0.00708   1.91609
   A13        1.89057  -0.00022  -0.00553   0.01743   0.01199   1.90256
   A14        1.86237  -0.00171  -0.01240   0.01127  -0.00114   1.86123
   A15        1.88947   0.00231   0.00567   0.01414   0.01987   1.90934
   A16        1.91783  -0.00142  -0.00129  -0.01669  -0.01797   1.89986
   A17        1.91173   0.00058   0.00928  -0.02311  -0.01439   1.89733
   A18        1.81914  -0.00043  -0.00753   0.02747   0.01972   1.83885
   A19        1.93474   0.00551   0.02930  -0.02413   0.00408   1.93881
   A20        1.87230  -0.00306  -0.02439   0.04070   0.01648   1.88878
   A21        2.00985  -0.00531  -0.01960  -0.02985  -0.05002   1.95983
   A22        1.90529   0.00293   0.01313   0.01751   0.03018   1.93548
   A23        2.03647   0.00522   0.03522  -0.04210  -0.00689   2.02958
   A24        2.06155  -0.00240   0.01530  -0.04931  -0.03412   2.02743
   A25        1.95723   0.00143  -0.00577   0.02278   0.01691   1.97415
   A26        2.26220   0.00115  -0.00836   0.02670   0.01824   2.28043
   A27        1.98966   0.00979   0.01843   0.02567   0.04411   2.03377
   A28        2.05218  -0.00050   0.00824  -0.02144  -0.01321   2.03897
   A29        1.96779   0.00116  -0.00038   0.00869   0.00830   1.97609
   A30        2.26317  -0.00065  -0.00781   0.01276   0.00494   2.26811
   A31        1.94604   0.02035   0.04145   0.04643   0.08788   2.03393
    D1        3.13731   0.00025   0.00092   0.00337   0.00429  -3.14158
    D2       -0.04423   0.00032   0.00169   0.00372   0.00542  -0.03881
    D3        3.09365   0.00053   0.00243   0.00672   0.00915   3.10279
    D4        3.13994   0.00028   0.00382  -0.01672  -0.01271   3.12723
    D5       -1.08054  -0.00101  -0.00603   0.00770   0.00162  -1.07891
    D6        1.02397   0.00034   0.00029   0.00486   0.00502   1.02899
    D7       -1.06327   0.00124   0.00008   0.05694   0.05703  -1.00623
    D8        1.02259  -0.00013  -0.00629   0.05340   0.04712   1.06971
    D9        3.11268  -0.00009  -0.00439   0.04101   0.03666  -3.13385
   D10       -3.13353   0.00108   0.00312   0.03662   0.03973  -3.09380
   D11       -1.04767  -0.00028  -0.00326   0.03308   0.02982  -1.01785
   D12        1.04241  -0.00025  -0.00135   0.02069   0.01936   1.06177
   D13        1.05908  -0.00016  -0.00153   0.03198   0.03042   1.08950
   D14       -3.13825  -0.00152  -0.00790   0.02844   0.02050  -3.11774
   D15       -1.04817  -0.00149  -0.00600   0.01605   0.01004  -1.03812
   D16       -1.12368   0.00014  -0.00905   0.06506   0.05590  -1.06779
   D17       -3.12245   0.00362   0.01868   0.01459   0.03345  -3.08900
   D18        1.11305  -0.00223  -0.00628  -0.00970  -0.01593   1.09712
   D19        3.04759  -0.00132  -0.01602   0.07660   0.06039   3.10798
   D20        1.04882   0.00216   0.01170   0.02613   0.03795   1.08677
   D21       -0.99886  -0.00369  -0.01325   0.00184  -0.01144  -1.01029
   D22        0.98417   0.00006  -0.01082   0.08283   0.07185   1.05602
   D23       -1.01460   0.00354   0.01690   0.03236   0.04940  -0.96519
   D24       -3.06228  -0.00231  -0.00805   0.00807   0.00002  -3.06226
   D25        1.53446   0.00098   0.00032   0.00347   0.00381   1.53828
   D26       -2.58351  -0.00090   0.00184  -0.01949  -0.01771  -2.60122
   D27       -0.53877   0.00014   0.00087  -0.00514  -0.00423  -0.54301
   D28        1.94833   0.00444   0.03646  -0.09861  -0.06171   1.88662
   D29       -2.37052   0.00264   0.01966  -0.05687  -0.03732  -2.40785
   D30       -0.24598   0.00064   0.00421  -0.02365  -0.01977  -0.26575
   D31       -2.91888  -0.00213  -0.01150   0.02905   0.01751  -2.90137
   D32        1.33781  -0.00125  -0.00743   0.02463   0.01694   1.35475
   D33       -0.85095   0.00543   0.02453   0.02402   0.04885  -0.80210
   D34       -0.22076   0.00136   0.00840  -0.01530  -0.00691  -0.22768
   D35        2.98529  -0.00142  -0.00593  -0.01906  -0.02498   2.96031
   D36       -3.06406  -0.00332  -0.01772  -0.00354  -0.02127  -3.08533
   D37       -0.05209   0.00143   0.00544   0.03292   0.03837  -0.01373
   D38        3.09873   0.00077   0.00197   0.03198   0.03394   3.13267
   D39       -3.13053  -0.00081  -0.00426  -0.00104  -0.00530  -3.13583
         Item               Value     Threshold  Converged?
 Maximum Force            0.093135     0.000450     NO 
 RMS     Force            0.014961     0.000300     NO 
 Maximum Displacement     0.388088     0.001800     NO 
 RMS     Displacement     0.115216     0.001200     NO 
 Predicted change in Energy=-2.973094D-02
 GradGradGradGradGradGradGradGradGradGradGradGradGradGradGradGradGradGrad

                          Input orientation:                          
 ---------------------------------------------------------------------
 Center     Atomic      Atomic             Coordinates (Angstroms)
 Number     Number       Type             X           Y           Z
 ---------------------------------------------------------------------
      1          8           0        3.161559    1.883607   -0.255912
      2          7           0        2.304186    1.892456   -1.061892
      3          8           0        2.102523    2.651804   -1.920057
      4          8           0        1.413575    0.890621   -1.006453
      5          6           0        1.635768   -0.097050   -0.007983
      6          6           0        0.502072   -1.097639   -0.129704
      7          6           0       -0.877851   -0.460316    0.024167
      8          8           0       -0.968649    0.113311    1.300816
      9          7           0       -0.946340    1.466215    1.353330
     10          8           0       -0.618548    2.016680    0.370607
     11          8           0       -1.215034    1.885962    2.401661
     12          8           0       -1.790012   -1.526778   -0.044119
     13          7           0       -3.091416   -1.198828   -0.220744
     14          8           0       -3.345547   -0.052521   -0.287049
     15          8           0       -3.792222   -2.122100   -0.278353
     16          8           0        0.530159   -1.704713   -1.420921
     17          7           0        1.209229   -2.684966   -1.536858
     18          1           0        2.579447   -0.596816   -0.172920
     19          1           0        1.642069    0.353635    0.972933
     20          1           0        0.628359   -1.865588    0.620071
     21          1           0       -1.063325    0.253022   -0.757108
 ---------------------------------------------------------------------
                    Distance matrix (angstroms):
                    1          2          3          4          5
     1  O    0.000000
     2  N    1.176763   0.000000
     3  O    2.116852   1.163496   0.000000
     4  O    2.145875   1.341615   2.100259   0.000000
     5  C    2.512470   2.348540   3.380841   1.421902   0.000000
     6  C    3.997077   3.613482   4.452542   2.356418   1.516991
     7  C    4.678595   4.103707   4.727359   2.852690   2.539936
     8  O    4.755625   4.411258   5.123481   3.406273   2.922361
     9  N    4.431559   4.071965   4.627769   3.386604   3.311231
    10  O    3.833986   3.257278   3.613136   2.700709   3.113378
    11  O    5.120280   4.937727   5.501812   4.417638   4.226794
    12  O    6.016114   5.430421   6.010949   4.127090   3.712330
    13  N    6.971538   6.275037   6.685210   5.027732   4.858544
    14  O    6.789109   6.025180   6.297742   4.904723   4.989325
    15  O    8.025040   7.341443   7.761016   6.058626   5.799742
    16  O    4.599733   4.026871   4.658401   2.772718   2.409013
    17  N    5.130719   4.730467   5.424568   3.620485   3.035903
    18  H    2.549165   2.657539   3.719339   2.065552   1.080510
    19  H    2.481880   2.635694   3.723304   2.063621   1.079515
    20  H    4.608786   4.445254   5.388157   3.295274   2.130035
    21  H    4.556276   3.757761   4.138744   2.569775   2.822914
                    6          7          8          9         10
     6  C    0.000000
     7  C    1.527758   0.000000
     8  O    2.382395   1.402542   0.000000
     9  N    3.297064   2.341556   1.354106   0.000000
    10  O    3.347399   2.514511   2.147247   1.173117   0.000000
    11  O    4.272953   3.357259   2.101156   1.160768   2.120863
    12  O    2.333481   1.405006   2.274506   3.409201   3.755052
    13  N    3.596065   2.346327   2.922840   3.765835   4.099300
    14  O    3.990138   2.520452   2.863295   3.279268   3.485775
    15  O    4.417305   3.368472   3.932353   4.861835   5.255745
    16  O    1.427084   2.370506   3.599929   4.464448   4.286941
    17  N    2.236015   3.426627   4.541575   5.498360   5.393021
    18  H    2.137330   3.465601   3.907066   4.360815   4.165688
    19  H    2.149790   2.812947   2.642180   2.842956   2.870350
    20  H    1.080674   2.144426   2.632469   3.757426   4.085219
    21  H    2.160646   1.074077   2.064832   2.437103   2.140107
                   11         12         13         14         15
    11  O    0.000000
    12  O    4.237833   0.000000
    13  N    4.462482   1.353662   0.000000
    14  O    3.940300   2.156882   1.176010   0.000000
    15  O    5.467078   2.101933   1.160551   2.117251   0.000000
    16  O    5.527276   2.703782   3.848656   4.363085   4.490285
    17  N    6.502489   3.544730   4.736698   5.407197   5.187982
    18  H    5.214474   4.469182   5.702929   5.951037   6.552540
    19  H    3.542926   4.043455   5.122586   5.160314   6.101353
    20  H    4.543818   2.530703   3.871468   4.461167   4.518241
    21  H    3.559119   2.050394   2.551217   2.350074   3.649286
                   16         17         18         19         20
    16  O    0.000000
    17  N    1.198112   0.000000
    18  H    2.642825   2.845733   0.000000
    19  H    3.347189   3.964783   1.759265   0.000000
    20  H    2.049676   2.379314   2.458731   2.465171   0.000000
    21  H    2.610090   3.795298   3.785934   3.212837   3.040876
                   21
    21  H    0.000000
 Stoichiometry    C3H4N4O10
 Framework group  C1[X(C3H4N4O10)]
 Deg. of freedom    57
 Full point group                 C1      NOp   1
 Largest Abelian subgroup         C1      NOp   1
 Largest concise Abelian subgroup C1      NOp   1
                         Standard orientation:                         
 ---------------------------------------------------------------------
 Center     Atomic      Atomic             Coordinates (Angstroms)
 Number     Number       Type             X           Y           Z
 ---------------------------------------------------------------------
      1          8           0        3.781858   -0.172594   -0.431405
      2          7           0        3.161193   -0.044742    0.560159
      3          8           0        3.473394   -0.254070    1.661266
      4          8           0        1.904736    0.407671    0.431430
      5          6           0        1.481256    0.728345   -0.887524
      6          6           0        0.040638    1.190977   -0.778643
      7          6           0       -0.876994    0.146940   -0.144623
      8          8           0       -0.872165   -1.003134   -0.947388
      9          7           0       -0.218475   -2.079353   -0.449348
     10          8           0        0.472407   -1.881457    0.477864
     11          8           0       -0.407304   -3.049205   -1.058539
     12          8           0       -2.164542    0.707625   -0.188149
     13          7           0       -3.112041    0.105460    0.568187
     14          8           0       -2.778715   -0.840240    1.182634
     15          8           0       -4.149813    0.620059    0.496798
     16          8           0       -0.032327    2.353667    0.045612
     17          7           0        0.108807    3.408988   -0.503797
     18          1           0        2.087275    1.523639   -1.297096
     19          1           0        1.555685   -0.137410   -1.528056
     20          1           0       -0.325034    1.438611   -1.764959
     21          1           0       -0.583943   -0.061460    0.867470
 ---------------------------------------------------------------------
 Rotational constants (GHZ):           0.6790292           0.3498988           0.2684578
 Standard basis: 6-31G(d) (6D, 7F)
 There are   263 symmetry adapted cartesian basis functions of A   symmetry.
 There are   263 symmetry adapted basis functions of A   symmetry.
   263 basis functions,   492 primitive gaussians,   263 cartesian basis functions
    65 alpha electrons       65 beta electrons
       nuclear repulsion energy      1393.4205042767 Hartrees.
 NAtoms=   21 NActive=   21 NUniq=   21 SFac= 1.00D+00 NAtFMM=   60 NAOKFM=F Big=F
 Integral buffers will be    131072 words long.
 Raffenetti 1 integral format.
 Two-electron integral symmetry is turned on.
 One-electron integrals computed using PRISM.
 NBasis=   263 RedAO= T EigKep=  1.79D-03  NBF=   263
 NBsUse=   263 1.00D-06 EigRej= -1.00D+00 NBFU=   263
 Initial guess from the checkpoint file:  "C:\g16w\Scratch\Gau-11756.chk"
 B after Tr=     0.000000    0.000000    0.000000
         Rot=    0.999505   -0.006484    0.005950   -0.030211 Ang=  -3.61 deg.
 ExpMin= 1.61D-01 ExpMax= 5.48D+03 ExpMxC= 8.25D+02 IAcc=3 IRadAn=         5 AccDes= 0.00D+00
 Harris functional with IExCor=  205 and IRadAn=       5 diagonalized for initial guess.
 HarFok:  IExCor=  205 AccDes= 0.00D+00 IRadAn=         5 IDoV= 1 UseB2=F ITyADJ=14
 ICtDFT=  3500011 ScaDFX=  1.000000  1.000000  1.000000  1.000000
 FoFCou: FMM=F IPFlag=           0 FMFlag=      100000 FMFlg1=           0
         NFxFlg=           0 DoJE=T BraDBF=F KetDBF=T FulRan=T
         wScrn=  0.000000 ICntrl=       500 IOpCl=  0 I1Cent=   200000004 NGrid=           0
         NMat0=    1 NMatS0=      1 NMatT0=    0 NMatD0=    1 NMtDS0=    0 NMtDT0=    0
 Petite list used in FoFCou.
 Requested convergence on RMS density matrix=1.00D-08 within 128 cycles.
 Requested convergence on MAX density matrix=1.00D-06.
 Requested convergence on             energy=1.00D-06.
 No special actions if energy rises.
 Integral accuracy reduced to 1.0D-05 until final iterations.
 Initial convergence to 1.0D-05 achieved.  Increase integral accuracy.
 SCF Done:  E(RHF) =  -1081.65893805     A.U. after   18 cycles
            NFock= 18  Conv=0.85D-08     -V/T= 2.0019
[...]
 02142666,0.02926404,0.26623819,-0.52604245,-0.05829300,-0.33953252,0.6
 7537178,-0.00035951,-0.00018821,-0.00006375,0.00093101,0.00072835,-0.0
 0020253,-0.00020907,-0.00022595,0.00014385,-0.00056936,-0.00033332,0.0
 0021602,0.00013438,0.00009413,-0.00005868,0.00078915,-0.00032155,-0.00
 009307,0.00077228,-0.00103709,-0.00920451,0.01059145,0.03645240,0.0410
 8111,-0.17075537,0.05357072,0.15656894,0.03686803,-0.01098264,0.038965
 09,0.11985065,0.00052581,0.00064803,0.00011427,-0.00131743,-0.00227800
 ,0.00040181,0.00019565,0.00095889,-0.00046022,0.00097167,0.00151229,-0
 .00046821,-0.00052469,-0.00133620,0.00038864,-0.00358331,-0.00014378,-
 0.00334424,0.01145407,0.00200896,0.01714840,0.03643649,-0.05973099,-0.
 09734372,0.04839230,-0.19615700,-0.12913423,-0.01041237,0.05055945,0.0
 3840842,-0.08169084,0.20929946,0.00191849,0.00048389,0.00130765,-0.004
 85036,-0.00133616,-0.00116468,0.00118018,-0.00018312,0.00035417,0.0025
 6738,-0.00010952,-0.00031831,-0.00085858,0.00095663,-0.00115040,-0.002
 74013,0.00017702,-0.00087440,0.00651378,0.00395171,0.00859287,0.023340
 31,-0.05657890,-0.02371827,0.16378869,-0.15938037,-0.67594013,0.039908
 82,0.03779603,-0.16192210,-0.22960960,0.17840004,0.85396028,-0.0010909
 9,-0.00175709,0.00046281,0.00287400,0.00552522,-0.00243553,-0.00047963
 ,-0.00243696,0.00171349,-0.00205092,-0.00270048,0.00089207,-0.00573415
 ,0.01013581,0.00215518,-0.04583570,-0.04263523,0.00334120,-0.14057153,
 -0.05818341,0.02570141,0.00644876,-0.03397421,-0.02712050,-0.01398424,
 0.02058565,-0.00076444,0.00268357,-0.00621330,0.00214539,0.00416618,-0
 .00587863,-0.00467098,0.54205916,-0.00051104,0.00001918,-0.00024840,0.
 00097519,0.00048350,-0.00003866,-0.00021734,0.00008034,-0.00005357,-0.
 00109001,0.00008627,0.00025068,0.00305547,-0.00318486,-0.00031001,0.00
 550510,0.01045931,-0.00069783,-0.03370445,-0.22396068,0.03387420,-0.01
 778206,-0.04141688,-0.02689378,-0.01112410,0.00840125,0.00123699,0.001
 59572,-0.00374732,-0.00132238,0.00313719,-0.00317446,-0.00372036,0.064
 86057,0.48857644,0.00043846,0.00021281,0.00032061,-0.00053348,-0.00076
 946,-0.00024092,0.00010640,0.00010133,0.00009149,0.00050394,0.00019198
 ,0.00023602,-0.00050088,0.00045853,-0.00021412,-0.00190895,-0.00055647
 ,0.00091331,0.00401392,0.02735245,-0.07231281,-0.02113597,-0.05323362,
 -0.00963073,-0.01036615,0.01203372,-0.00695232,0.00084856,-0.00281139,
 0.00544775,0.00249494,-0.00280094,-0.00078894,0.02739588,-0.00901566,0
 .10341177,0.00157111,0.00169723,-0.00019446,-0.00406339,-0.00625309,0.
 00228125,0.00073006,0.00262227,-0.00173403,0.00345271,0.00391822,-0.00
 131704,0.00008742,-0.00346298,-0.00029509,-0.00194522,0.00128152,0.000
 64156,-0.07372887,-0.04363521,-0.01709530,0.00044937,0.02534023,0.0162
 8404,0.01435726,-0.02532596,-0.00430499,-0.00386155,0.00814102,-0.0015
 6961,-0.00461205,0.00695358,0.00660886,-0.18123684,0.01449511,-0.00955
 652,0.83328330,0.00073403,-0.00030931,0.00052882,-0.00144648,0.0007727
 2,-0.00081585,0.00048583,-0.00068036,0.00049826,0.00059495,-0.00056581
 ,-0.00009530,-0.00172486,0.00305930,0.00016620,-0.00702104,-0.00795612
 ,0.00461788,-0.03254778,0.05450372,0.00290853,0.00814601,-0.01096377,-
 0.00926572,-0.01301464,0.00310961,-0.01213837,0.00398140,-0.00357677,0
 .00619942,0.00209339,-0.00142882,0.00125912,0.02743536,-0.20651647,0.0
 0655051,0.18062767,1.36797854,-0.00005947,0.00020970,-0.00025239,-0.00
 011696,-0.00068433,0.00065337,-0.00001436,0.00036447,-0.00038084,0.000
 16605,0.00031497,-0.00027631,0.00076728,-0.00136932,0.00030201,0.00148
 045,0.00295806,0.00189603,-0.00416288,-0.00998664,-0.00589259,-0.00068
 677,0.00205848,-0.00113644,-0.00005926,-0.00571509,0.00310841,-0.00049
 213,0.00164931,-0.00214189,0.00026897,0.00121572,-0.00056286,-0.008632
 97,0.01015963,-0.08723130,0.03599130,-0.00438251,0.33663849,-0.0004055
 6,-0.00052863,0.00010403,0.00111710,0.00194853,-0.00074614,-0.00018332
 ,-0.00086193,0.00057326,-0.00104184,-0.00133980,0.00041994,0.00024027,
 0.00124707,0.00011268,0.00106290,0.00032424,-0.00229086,0.00381548,0.0
 1237991,0.00517809,-0.00153851,-0.00571406,-0.00390582,-0.00468438,0.0
 0709252,0.00241811,0.00035423,-0.00253307,-0.00028008,0.00152381,-0.00
 187032,-0.00211494,-0.04766833,0.07658981,-0.00753099,-0.20579599,0.11
 390899,-0.00873444,0.21107221,-0.00029018,0.00028388,-0.00029535,0.000
 49607,-0.00090276,0.00057496,-0.00021256,0.00060346,-0.00041255,0.0000
 6747,0.00081220,-0.00008994,0.00036401,-0.00149663,-0.00023085,0.00165
 392,0.00201224,-0.00196052,-0.00920507,-0.02281125,-0.00488702,-0.0042
 5846,0.00757907,0.00507127,0.00694416,-0.00542953,0.00759481,-0.004324
 73,0.00222543,-0.00513695,-0.00127037,0.00151694,-0.00047729,0.0697655
 0,-0.02287143,0.00746294,0.13992254,-0.64707923,0.01999795,-0.15396665
 ,0.84298231,0.00009854,-0.00003209,0.00014547,-0.00007120,0.00014650,-
 0.00031318,0.00004056,-0.00010830,0.00015707,-0.00002889,-0.00004773,0
 .00013652,-0.00017420,0.00021261,-0.00020965,-0.00011033,-0.00071854,0
 .00030211,0.00303589,0.00066998,-0.00324157,-0.00382062,-0.00111787,0.
 00035779,0.00132368,0.00306324,-0.00226948,-0.00022657,-0.00071171,0.0
 0100126,-0.00075279,-0.00015898,0.00121445,-0.00687224,0.00785999,0.03
 192012,-0.01051598,0.01934009,-0.12152047,0.01613502,-0.02685365,0.048
 46648,-0.00068464,-0.00067287,0.00004891,0.00173172,0.00234236,-0.0008
 4612,-0.00034626,-0.00094863,0.00064354,-0.00125149,-0.00133721,0.0004
 9822,-0.00073842,0.00251758,0.00035750,-0.00101732,-0.00599254,-0.0012
 0934,0.00255874,0.02251910,0.00363694,-0.00002048,-0.00693008,-0.00526
 786,-0.00273370,0.00694550,0.00386109,0.00030756,-0.00177655,-0.000958
 00,0.00125587,-0.00198167,-0.00255472,-0.11528544,-0.07746245,-0.00945
 229,-0.38811222,-0.27919820,-0.01756380,0.04846628,-0.04696119,0.00179
 779,0.45738384,-0.00052222,-0.00020827,-0.00013062,0.00119597,0.000764
 05,-0.00013943,-0.00030292,-0.00019619,0.00013435,-0.00068461,-0.00033
 742,0.00023228,-0.00013810,0.00051818,0.00017755,0.00055591,-0.0018377
 3,-0.00164689,0.00281283,0.00109729,0.00030614,-0.00200572,0.00043709,
 0.00011994,0.00259194,0.00086977,0.00628846,-0.00150366,0.00055019,-0.
 00292972,0.00005244,-0.00029891,-0.00174970,-0.03217446,0.02008483,-0.
 00227519,-0.31203245,-0.54374620,-0.01853090,-0.04774748,-0.16241241,-
 0.00046993,0.38965046,0.68331741,-0.00002376,-0.00007467,0.00004782,0.
 00009847,0.00024923,-0.00016879,-0.00001421,-0.00011485,0.00010670,-0.
 00010189,-0.00012153,0.00007272,-0.00015328,0.00039387,0.00002009,-0.0
 0034884,-0.00101765,-0.00043746,-0.00060028,0.00233680,0.00587471,0.00
 105458,0.00077719,0.00014199,-0.00004180,0.00016373,-0.00025357,0.0000
 5497,-0.00019768,0.00013749,-0.00008051,-0.00013414,0.00002777,-0.0123
 5893,-0.00704220,0.02557650,-0.01552572,-0.01581550,-0.12334321,0.0013
 4676,-0.00018878,0.04321914,0.02720480,0.02107022,0.04922665,0.0008023
 5,0.00017863,0.00060636,-0.00202440,-0.00078099,-0.00030990,0.00046609
 ,0.00030603,-0.00017162,0.00185514,0.00123623,0.00016127,0.00214492,-0
 .01393744,-0.02948732,-0.08462382,0.01146366,-0.04419135,0.00176087,0.
 01123680,0.03182772,-0.00654442,0.01003122,0.00484507,0.00020970,-0.00
 710765,0.00055004,-0.00002515,0.00166955,-0.00052865,-0.00065326,0.002
 54076,0.00184445,-0.00497464,0.00204638,0.00489745,0.00613732,0.000397
 63,-0.00032570,-0.00123518,0.00035884,-0.00012585,-0.00155812,-0.00084
 054,0.00012344,0.31560926,-0.00189393,-0.00092661,0.00025154,0.0029985
 4,0.00370620,-0.00143076,-0.00042586,-0.00094405,0.00045482,-0.0016741
 8,-0.00024021,-0.00275387,0.00090972,-0.01992279,-0.03406698,0.0112755
 6,-0.07288384,-0.00176967,-0.00048788,-0.01230858,-0.02456666,0.005597
 64,-0.00526049,-0.00358755,-0.00126968,0.00531880,0.00065067,0.0003776
 4,-0.00095914,-0.00006637,0.00064147,-0.00183523,-0.00163737,0.0017713
 7,0.00078046,-0.00034989,-0.00374297,-0.00169491,0.00026130,0.00077394
 ,0.00070599,-0.00001879,0.00155224,0.00129692,0.00007668,-0.30860186,0
 .48553665,0.00009101,-0.00020870,0.00050222,0.00009268,0.00063431,-0.0
 0054409,-0.00004963,-0.00058752,0.00045818,-0.00037605,0.00020128,0.00
 214217,-0.00462742,-0.01422053,-0.02020827,-0.04947959,0.00579066,-0.2
 0288130,0.00563772,-0.00391700,-0.00893112,-0.00077757,0.00010722,0.00
 167729,-0.00080822,0.00184270,0.00034772,0.00012261,-0.00055314,0.0002
 3880,0.00014887,-0.00015823,0.00003818,0.00094367,-0.00088388,-0.00091
 851,-0.00094073,-0.00012208,0.00045470,0.00009588,0.00020084,-0.000002
 42,0.00022101,0.00017024,-0.00006951,0.03450272,0.08641090,0.34810593,
 -0.00083316,-0.00050259,0.00000665,0.00180710,0.00209334,-0.00073041,-
 0.00029201,-0.00075203,0.00046609,-0.00072082,-0.00102220,-0.00012918,
 -0.00017169,-0.00191391,-0.00366343,-0.00625753,0.01884021,0.03619872,
 0.00130800,0.00252487,0.00208214,0.00007525,-0.00035356,-0.00077632,-0
 .00069921,0.00087366,0.00094081,0.00016041,-0.00016383,-0.00034454,0.0
 0021967,-0.00025867,-0.00047394,0.00198023,-0.00040276,-0.00089143,-0.
 00297237,-0.00025790,-0.00012594,0.00070926,-0.00026591,0.00004976,0.0
 0086307,0.00048357,0.00001037,-0.22623791,0.29615320,0.01760201,0.2290
 4096,0.00152691,0.00043054,0.00036744,-0.00290613,-0.00225660,0.000264
 44,0.00049090,0.00070844,-0.00023278,0.00210081,0.00050037,0.00092837,
 -0.00065743,0.00251726,0.00056172,0.02049468,-0.05010841,-0.05014494,-
 0.00276579,-0.00332379,-0.00470930,0.00081592,-0.00033726,0.00068585,0
 .00086007,-0.00060464,-0.00134924,-0.00017279,0.00012253,0.00052715,-0
 .00023595,0.00015211,0.00049449,-0.00244978,0.00067705,0.00132181,0.00
 360333,0.00033148,0.00013846,-0.00084159,0.00035334,-0.00001676,-0.000
 94419,-0.00053535,-0.00002892,0.29040604,-0.38842946,-0.04935902,-0.30
 958349,0.43438490,0.00030091,0.00001671,0.00015422,-0.00047135,-0.0002
 0936,0.00000146,0.00006433,-0.00004643,0.00011894,0.00007192,0.0000257
 7,0.00015392,0.00150826,-0.00009555,0.00046795,0.04350289,-0.05273453,
 -0.00422107,-0.00301427,-0.00628674,-0.00702280,0.00223861,-0.00267233
 ,-0.00093093,0.00023726,0.00172329,-0.00071629,-0.00002590,-0.00041715
 ,0.00035393,0.00009189,-0.00066509,-0.00033084,-0.00027869,0.00042350,
 0.00066224,0.00035015,-0.00026596,-0.00019689,0.00001870,0.00025915,0.
 00006263,0.00012597,0.00014460,0.00006498,-0.00094410,-0.03246171,-0.0
 7836671,-0.04596706,0.09364832,0.08292220,0.00054378,-0.00240311,0.000
 84034,-0.00042955,0.00003325,-0.00151181,0.00020790,-0.00022219,0.0009
 8449,0.00154341,0.00256681,-0.00427458,-0.28229049,0.12711871,0.055688
 07,-0.02552752,0.01462192,0.00670214,-0.00047610,-0.00451112,-0.000720
 61,0.00037935,0.00016857,0.00003259,0.00008174,-0.00043060,-0.00022305
 ,-0.00000510,0.00013994,0.00005242,-0.00006213,0.00014955,0.00017881,-
 0.00226413,0.00045496,-0.00006612,0.00076026,-0.00038384,0.00025844,-0
 .00020421,0.00014461,-0.00002949,-0.00054381,-0.00021819,-0.00008193,0
 .00142697,0.00109729,0.00111601,0.00102737,0.00006206,-0.00008534,0.30
 003788,-0.00361892,-0.00014947,-0.00182976,0.01000942,0.00322833,0.001
 54976,-0.00185042,-0.00062687,0.00012867,0.02180423,-0.02623537,0.0077
 2411,0.12118110,-0.13071810,-0.03468892,-0.02326140,0.01543132,0.00537
 731,-0.00170929,-0.00471354,-0.00203794,0.00039537,0.00048211,0.000170
 43,-0.00011389,-0.00096367,0.00019811,0.00013682,0.00041018,-0.0002015
 9,-0.00003286,0.00024455,0.00004164,-0.00259158,0.00067854,-0.00003762
 ,0.00084885,-0.00053469,0.00037340,-0.00028566,0.00024204,-0.00004498,
 -0.00065560,-0.00022134,-0.00010772,0.00138325,0.00012420,0.00058158,-
 0.00048847,0.00106740,0.00002417,-0.13553453,0.14576617,0.00133950,0.0
 0115624,0.00010567,-0.00378529,-0.00291366,0.00179322,0.00084759,0.000
 53567,-0.00119919,-0.02868215,0.02738288,-0.00065932,0.06456893,-0.037
 89716,-0.07990857,-0.00439922,0.00008190,0.00054989,-0.00071398,-0.001
 26140,-0.00037289,0.00135352,-0.00002241,0.00034474,-0.00080913,0.0012
 0464,0.00002937,0.00004640,-0.00034966,0.00020001,0.00010178,-0.000187
 56,-0.00001488,-0.00004579,0.00013322,0.00010990,-0.00033510,-0.000168
 29,-0.00004135,0.00010194,0.00008141,0.00003925,0.00010384,0.00009164,
 0.00000024,-0.00075901,0.00051464,0.00050191,-0.00041335,0.00019843,-0
 .00030872,-0.05830847,0.02658546,0.08229135,-0.00117985,-0.00043754,0.
 00005656,0.00210837,0.00031352,0.00203168,-0.00035563,0.00002184,-0.00
 025886,0.00039539,-0.00254714,-0.00779147,-0.06582816,-0.00320332,-0.0
 1018478,0.00180927,-0.01057866,-0.02719213,0.00003762,-0.00038943,-0.0
 0149348,-0.00035327,0.00013475,0.00059069,-0.00138841,0.00159106,0.000
 53783,0.00025110,-0.00037290,0.00011293,0.00013062,-0.00024889,-0.0002
 0625,0.00062082,0.00012373,0.00028974,-0.00040704,-0.00024980,-0.00012
 887,0.00007601,0.00015696,0.00007048,0.00023844,0.00020468,0.00002680,
 -0.00388632,-0.00459664,-0.00142975,-0.00032199,0.00041756,0.00015723,
 0.00481978,0.01360876,0.02896096,0.06230922,-0.00264726,-0.00208638,0.
 00033626,0.00397894,0.00581760,0.00137883,-0.00008004,-0.00186008,-0.0
 0016703,0.00146431,0.00481613,0.04204825,-0.00657836,-0.12228850,-0.12
 841943,0.00372920,-0.00597938,-0.01983823,0.00009236,-0.00067485,-0.00
 069041,0.00130122,0.00022317,0.00025528,0.00002040,0.00095763,0.000303
 37,-0.00007859,-0.00026848,0.00010664,0.00000820,-0.00014150,-0.000166
 03,-0.00012052,0.00014415,0.00013150,0.00014123,-0.00020952,-0.0000449
 3,-0.00006115,0.00014438,0.00001597,-0.00003120,0.00005773,0.00001253,
 -0.00396716,-0.00382033,-0.00176328,-0.00079595,0.00102187,0.00044923,
 -0.00260547,-0.00461315,-0.01502849,0.00579863,0.12883774,0.00214646,-
 0.00027487,0.00353434,-0.00700687,-0.00415736,-0.00369186,0.00134344,0
 .00065230,0.00091689,-0.00242222,0.00608012,-0.03000445,-0.00987253,-0
 .11780175,-0.30863436,-0.00120685,-0.00127545,0.00112632,-0.00048753,-
 0.00102130,-0.00110766,0.00298526,-0.00005487,0.00019194,-0.00074398,0
 .00107820,0.00086702,0.00019341,-0.00012329,-0.00008378,0.00003397,-0.
 00023499,-0.00040043,0.00002286,0.00013637,0.00008126,-0.00022516,-0.0
 0014162,-0.00005575,0.00006706,0.00006544,0.00005041,0.00007294,0.0000
 6910,0.00000341,0.00120330,0.00056820,0.00192588,0.00001703,0.00006819
 ,-0.00011186,-0.00043384,-0.00422245,-0.00337538,0.01508530,0.12082893
 ,0.33822489,-0.00073571,0.00002843,-0.00053675,0.00279124,0.00025330,0
 .00156865,-0.00078703,-0.00139022,0.00062869,-0.00695747,-0.00625826,-
 0.00054706,0.00776906,-0.01951885,0.02010721,-0.06927399,0.01913164,-0
 .01911622,-0.00390684,0.02786288,-0.02653778,0.00087556,-0.00171551,0.
 00016038,0.00022294,0.00000424,-0.00084269,0.00007054,0.00010685,0.000
 73305,-0.00015070,0.00006318,0.00033485,0.00291505,0.00053188,-0.00001
 542,-0.00059852,0.00175944,0.00003639,-0.00039361,-0.00129857,0.000237
 28,0.00012567,-0.00042852,-0.00000100,-0.00059096,0.00172306,-0.001593
 22,0.00179955,-0.00094590,0.00131171,0.00086472,0.00091702,0.00059754,
 0.00097727,0.00056017,-0.00079671,0.07006801,-0.00062169,-0.00010548,-
 0.00040393,0.00176971,0.00087956,0.00096413,-0.00043018,-0.00089496,0.
 00035647,-0.00513254,-0.00305995,-0.00074939,0.00559405,-0.01314660,0.
 01470070,0.02091602,-0.23416187,0.15864432,0.00177329,-0.01071431,0.01
 170745,-0.00041975,0.00097481,-0.00011356,-0.00011204,-0.00094119,0.00
 056858,0.00005453,0.00040189,-0.00066087,0.00004441,0.00010744,-0.0002
 3757,-0.00193166,0.00089676,-0.00088767,0.00075249,-0.00039998,-0.0001
 1910,-0.00017391,0.00054573,-0.00007088,-0.00012653,0.00001835,0.00003
 995,0.00296473,0.01071535,-0.02473338,-0.00439281,0.00373686,-0.000495
 64,-0.00028107,0.00111617,-0.00019620,0.00023770,-0.00002449,-0.000277
 66,-0.02218141,0.24385683,-0.00031981,-0.00005732,-0.00021353,0.000822
 37,0.00034584,0.00075386,-0.00026714,-0.00056469,0.00018255,-0.0020704
 7,-0.00193151,0.00118009,0.00234653,-0.00086025,0.00381397,-0.01690869
 ,0.14436156,-0.18953360,-0.00008703,-0.00478574,0.00661459,-0.00031430
 ,0.00025299,0.00066800,-0.00047329,0.00039691,0.00079033,0.00002559,-0
 .00019564,-0.00031936,0.00011946,-0.00003485,-0.00026608,-0.00002417,0
 .00022814,0.00011571,-0.00094012,-0.00060940,0.00003065,0.00057522,0.0
 0002269,-0.00005843,0.00027247,0.00023935,0.00001503,-0.00338825,0.013
 39774,-0.04523986,-0.00380075,0.00655750,0.00755583,-0.00015340,0.0002
 9751,-0.00000829,0.00072754,0.00017541,0.00058359,0.02214618,-0.156904
 84,0.21371242,0.00075818,0.00027641,0.00041349,-0.00100041,-0.00129394
 ,0.00017584,0.00015223,0.00013885,0.00001436,-0.00074029,-0.00058476,0
 .00012026,0.00108633,0.00131933,-0.00107111,-0.00271425,0.02214145,-0.
 02505977,-0.08276582,0.05341748,-0.05706203,0.00407234,-0.00046442,0.0
 0494234,0.00100008,-0.00094055,0.00081996,-0.00069063,0.00109703,0.000
 38597,0.00013836,0.00008378,-0.00010514,-0.00257123,-0.03107689,0.0209
 6891,0.00650525,-0.00432016,0.00213469,-0.00528662,0.00217960,-0.00006
 083,-0.00063929,0.00105105,-0.00058804,0.00194158,-0.00217866,-0.00049
 201,-0.00048417,0.00072474,0.00080687,0.00010987,-0.00014220,0.0002295
 0,-0.00005323,-0.00012896,0.00002469,-0.00508478,0.00169666,0.00171205
 ,0.08626651,-0.00002078,-0.00025207,0.00016213,-0.00028125,0.00102019,
 -0.00062888,0.00016914,-0.00039563,0.00029542,-0.00112980,-0.00076178,
 0.00025371,0.00044104,0.00018434,-0.00023818,0.00355620,-0.00516671,0.
 00774548,0.04470418,-0.20469591,0.16152780,-0.00298635,0.01391241,-0.0
 2396013,-0.00052946,0.00433382,-0.00158546,0.00130687,-0.00896907,-0.0
 0230927,-0.00050392,-0.00048324,0.00201584,-0.00703216,-0.02649599,0.0
 1692035,0.00410738,-0.00409339,0.00113138,0.00165923,0.00299623,-0.000
 93818,-0.00050836,0.00078200,-0.00027658,-0.00098411,0.00104105,0.0005
 6703,0.00018520,-0.00040862,-0.00036426,0.00003246,-0.00001482,0.00005
 871,0.00001516,-0.00005377,0.00003878,0.00079517,0.00019909,-0.0003313
 9,-0.04299584,0.22732186,-0.00006967,0.00020069,-0.00015192,0.00005751
 ,-0.00088357,0.00052118,-0.00009765,0.00037186,-0.00035761,0.00133337,
 0.00092172,-0.00031475,-0.00075328,-0.00016891,0.00010644,-0.00100170,
 -0.00440767,0.00907769,-0.04287239,0.15091221,-0.23156240,-0.00674313,
 0.01186639,-0.03997411,-0.00142947,0.00886924,-0.00529258,-0.00004167,
 -0.00161700,0.00530639,-0.00016945,-0.00095191,0.00195695,-0.00156973,
 -0.00407598,0.00940297,0.00239270,0.00175178,-0.00005137,-0.00154342,-
 0.00079856,0.00054251,-0.00099288,-0.00117150,-0.00026268,-0.00033007,
 0.00012315,0.00076881,-0.00005722,0.00007880,-0.00031220,0.00003533,0.
 00011885,-0.00007695,0.00003787,0.00007563,-0.00004042,0.00212493,-0.0
 0113091,-0.00037748,0.05168999,-0.16008429,0.25109153||-0.00000789,-0.
 00000529,-0.00001671,0.00001759,0.00004281,0.00001225,0.00000721,-0.00
 002086,0.00000466,-0.00001794,-0.00001503,0.00000586,0.00000266,-0.000
 00331,-0.00000654,0.00003348,-0.00000019,-0.00001764,-0.00004131,-0.00
 003394,-0.00000175,0.00000443,0.00000742,0.00000686,-0.00001322,-0.000
 01409,0.00002061,0.00000608,0.00000338,-0.00000798,0.00000623,0.000000
 86,-0.00001314,0.00006150,0.00001034,0.00000173,-0.00007298,0.00000919
 ,0.00002044,0.00001354,-0.00001454,-0.00001139,0.00002065,0.00001678,-
 0.00000931,0.00001107,-0.00001371,-0.00000503,-0.00002160,0.00003060,0
 .00001443,-0.00000104,-0.00000220,-0.00000017,-0.00000605,0.00000062,-
 0.00000199,-0.00000583,-0.00000157,0.00000713,0.00000342,0.00000275,-0
 .00000231|||@
 The archive entry for this job was punched.


 WHERE THERE IS MUCH DESIRE TO LEARN, THERE OF NECESSITY WILL BE
 MUCH ARGUING, MUCH WRITING, MANY OPINIONS; FOR OPINION IN GOOD MEN
 IS BUT KNOWLEDGE IN THE MAKING. -- JOHN MILTON.
 Job cpu time:       0 days  0 hours  1 minutes  3.0 seconds.
 Elapsed time:       0 days  0 hours  1 minutes  1.4 seconds.
 File lengths (MBytes):  RWF=    187 Int=      0 D2E=      0 Chk=      7 Scr=      1
 Normal termination of Gaussian 16 at Tue Jun 11 18:56:02 2024.
