 Entering Link 1 = C:\G16W\l1.exe PID=     14208.
  
 Copyright (c) 1988-2019, Gaussian, Inc.  All Rights Reserved.
  
 This is part of the Gaussian(R) 16 program.  It is based on
 the Gaussian(R) 09 system (copyright 2009, Gaussian, Inc.),
 the Gaussian(R) 03 system (copyright 2003, Gaussian, Inc.),
 the Gaussian(R) 98 system (copyright 1998, Gaussian, Inc.),
 the Gaussian(R) 94 system (copyright 1995, Gaussian, Inc.),
 the Gaussian 92(TM) system (copyright 1992, Gaussian, Inc.),
 the Gaussian 90(TM) system (copyright 1990, Gaussian, Inc.),
 the Gaussian 88(TM) system (copyright 1988, Gaussian, Inc.),
 the Gaussian 86(TM) system (copyright 1986, Carnegie Mellon
 University), and the Gaussian 82(TM) system (copyright 1983,
 Carnegie Mellon University). Gaussian is a federally registered
 trademark of Gaussian, Inc.
  
 This software contains proprietary and confidential information,
 including trade secrets, belonging to Gaussian, Inc.
  
 This software is provided under written license and may be
 used, copied, transmitted, or stored only in accord with that
 written license.
  
 The following legend is applicable only to US Government
 contracts under FAR:
  
                    RESTRICTED RIGHTS LEGEND
  
 Use, reproduction and disclosure by the US Government is
 subject to restrictions as set forth in subparagraphs (a)
 and (c) of the Commercial Computer Software - Restricted
 Rights clause in FAR 52.227-19.
  
 Gaussian, Inc.
 340 Quinnipiac St., Bldg. 40, Wallingford CT 06492
  
  
 ---------------------------------------------------------------
 Warning -- This program may not be used in any manner that
 competes with the business of Gaussian, Inc. or will provide
 assistance to any competitor of Gaussian, Inc.  The licensee
 of this program is prohibited from giving any competitor of
 Gaussian, Inc. access to this program.  By using this program,
 the user acknowledges that Gaussian, Inc. is engaged in the
 business of creating and licensing software in the field of
 computational chemistry and represents and warrants to the
 licensee that it is not a competitor of Gaussian, Inc. and that
 it will not use this program in any manner prohibited above.
 ---------------------------------------------------------------
  

 Cite this work as:
 Gaussian 16, Revision C.01,
 M. J. Frisch, G. W. Trucks, H. B. Schlegel, G. E. Scuseria, 
 M. A. Robb, J. R. Cheeseman, G. Scalmani, V. Barone, 
 G. A. Petersson, H. Nakatsuji, X. Li, M. Caricato, A. V. Marenich, 
 J. Bloino, B. G. Janesko, R. Gomperts, B. Mennucci, H. P. Hratchian, 
 J. V. Ortiz, A. F. Izmaylov, J. L. Sonnenberg, D. Williams-Young, 
 F. Ding, F. Lipparini, F. Egidi, J. Goings, B. Peng, A. Petrone, 
 T. Henderson, D. Ranasinghe, V. G. Zakrzewski, J. Gao, N. Rega, 
 G. Zheng, W. Liang, M. Hada, M. Ehara, K. Toyota, R. Fukuda, 
 J. Hasegawa, M. Ishida, T. Nakajima, Y. Honda, O. Kitao, H. Nakai, 
 T. Vreven, K. Throssell, J. A. Montgomery, Jr., J. E. Peralta, 
 F. Ogliaro, M. J. Bearpark, J. J. Heyd, E. N. Brothers, K. N. Kudin, 
 V. N. Staroverov, T. A. Keith, R. Kobayashi, J. Normand, 
 K. Raghavachari, A. P. Rendell, J. C. Burant, S. S. Iyengar, 
 J. Tomasi, M. Cossi, J. M. Millam, M. Klene, C. Adamo, R. Cammi, 
 J. W. Ochterski, R. L. Martin, K. Morokuma, O. Farkas, 
 J. B. Foresman, and D. J. Fox, Gaussian, Inc., Wallingford CT, 2019.
 
 ******************************************
 Gaussian 16:  EM64W-G16RevC.01 30-May-2019
                11-Jun-2024 
 ******************************************
 %nprocshared=24
 Will use up to   24 processors via shared memory.
 %mem=120GB
 ----------------------
 # HF/6-31G(d) Opt Freq
 ----------------------
 1/18=20,19=15,38=1/1,3;
 2/9=110,12=2,17=6,18=5,40=1/2;
 3/5=1,6=6,7=1,11=9,25=1,30=1,71=1/1,2,3;
 4//1;
 5/5=2,38=5/2;
 6/7=2,8=2,9=2,10=2,28=1/1;
 7//1,2,3,16;
 1/18=20,19=15/3(2);
 2/9=110/2;
 99//99;
 2/9=110/2;
 3/5=1,6=6,7=1,11=9,25=1,30=1,71=1/1,2,3;
 4/5=5,16=3,69=1/1;
 5/5=2,38=5/2;
 7//1,2,3,16;
 1/18=20,19=15/3(-5);
 2/9=110/2;
 6/7=2,8=2,9=2,10=2,19=2,28=1/1;
 99/9=1/99;
 ----------------------------------------------------------------------
 O=[N+1]([O-1])OCC(C(O[N+1]([O-1])=O)O[N+1]([O-1])[O-1])O[N+1] geometry
  optimization
 ----------------------------------------------------------------------
 Symbolic Z-matrix:
 Charge =  0 Multiplicity = 1
 O                     3.86358   1.4283    0.99606 
 N                     3.36691   0.53355   0.31704 
 O                     3.87952  -0.47145  -0.17498 
 O                     1.97786   0.71711   0.10641 
 C                     1.39786  -0.32209  -0.6778 
 C                    -0.10189  -0.05993  -0.90586 
 C                    -0.9304    0.08037   0.39906 
 O                    -0.7288   -1.07086   1.22195 
 N                    -1.61502  -2.1284    0.929 
 O                    -2.30399  -2.01556  -0.08322 
 O                    -1.49937  -3.07126   1.70609 
 O                    -0.4521    1.24375   1.09964 
 N                    -1.53106   1.89379   1.83012 
 O                    -2.25444   0.91617   2.56755 
 O                    -2.41101   2.48302   0.88528 
 O                    -0.21322   1.13534  -1.68961 
 N                    -1.41136   1.037    -2.50862 
 H                     1.89276  -0.35216  -1.65723 
 H                     1.52279  -1.28765  -0.17266 
 H                    -0.46444  -0.91763  -1.48851 
 H                    -1.98418   0.22861   0.12872 
 

 GradGradGradGradGradGradGradGradGradGradGradGradGradGradGradGradGradGrad
 Berny optimization.
 Initialization pass.
                           ----------------------------
                           !    Initial Parameters    !
                           ! (Angstroms and Degrees)  !
 --------------------------                            --------------------------
 ! Name  Definition              Value          Derivative Info.                !
 --------------------------------------------------------------------------------
 ! R1    R(1,2)                  1.2281         estimate D2E/DX2                !
 ! R2    R(2,3)                  1.2308         estimate D2E/DX2                !
 ! R3    R(2,4)                  1.4169         estimate D2E/DX2                !
 ! R4    R(4,5)                  1.4252         estimate D2E/DX2                !
 ! R5    R(5,6)                  1.5395         estimate D2E/DX2                !
 ! R6    R(5,18)                 1.0978         estimate D2E/DX2                !
 ! R7    R(5,19)                 1.0969         estimate D2E/DX2                !
 ! R8    R(6,7)                  1.5521         estimate D2E/DX2                !
 ! R9    R(6,16)                 1.4336         estimate D2E/DX2                !
 ! R10   R(6,20)                 1.0984         estimate D2E/DX2                !
 ! R11   R(7,8)                  1.4294         estimate D2E/DX2                !
 ! R12   R(7,12)                 1.4398         estimate D2E/DX2                !
 ! R13   R(7,21)                 1.098          estimate D2E/DX2                !
 ! R14   R(8,9)                  1.4105         estimate D2E/DX2                !
 ! R15   R(9,10)                 1.2296         estimate D2E/DX2                !
 ! R16   R(9,11)                 1.2273         estimate D2E/DX2                !
 ! R17   R(12,13)                1.4561         estimate D2E/DX2                !
 ! R18   R(13,14)                1.4223         estimate D2E/DX2                !
 ! R19   R(13,15)                1.4192         estimate D2E/DX2                !
 ! R20   R(16,17)                1.4546         estimate D2E/DX2                !
 ! A1    A(1,2,3)              130.3509         estimate D2E/DX2                !
 ! A2    A(1,2,4)              112.5989         estimate D2E/DX2                !
 ! A3    A(3,2,4)              117.0435         estimate D2E/DX2                !
 ! A4    A(2,4,5)              112.724          estimate D2E/DX2                !
 ! A5    A(4,5,6)              110.7192         estimate D2E/DX2                !
 ! A6    A(4,5,18)             109.1125         estimate D2E/DX2                !
 ! A7    A(4,5,19)             110.0052         estimate D2E/DX2                !
 ! A8    A(6,5,18)             108.1607         estimate D2E/DX2                !
 ! A9    A(6,5,19)             109.2135         estimate D2E/DX2                !
 ! A10   A(18,5,19)            109.599          estimate D2E/DX2                !
 ! A11   A(5,6,7)              114.2601         estimate D2E/DX2                !
 ! A12   A(5,6,16)             107.3741         estimate D2E/DX2                !
 ! A13   A(5,6,20)             105.4945         estimate D2E/DX2                !
 ! A14   A(7,6,16)             110.0485         estimate D2E/DX2                !
 ! A15   A(7,6,20)             109.8993         estimate D2E/DX2                !
 ! A16   A(16,6,20)            109.5964         estimate D2E/DX2                !
 ! A17   A(6,7,8)              109.629          estimate D2E/DX2                !
 ! A18   A(6,7,12)             107.7468         estimate D2E/DX2                !
 ! A19   A(6,7,21)             108.513          estimate D2E/DX2                !
 ! A20   A(8,7,12)             108.8931         estimate D2E/DX2                !
 ! A21   A(8,7,21)             112.6967         estimate D2E/DX2                !
 ! A22   A(12,7,21)            109.2412         estimate D2E/DX2                !
 ! A23   A(7,8,9)              113.3078         estimate D2E/DX2                !
 ! A24   A(8,9,10)             117.0131         estimate D2E/DX2                !
 ! A25   A(8,9,11)             112.6613         estimate D2E/DX2                !
 ! A26   A(10,9,11)            130.1301         estimate D2E/DX2                !
 ! A27   A(7,12,13)            111.0182         estimate D2E/DX2                !
 ! A28   A(12,13,14)           109.2759         estimate D2E/DX2                !
 ! A29   A(12,13,15)           108.1067         estimate D2E/DX2                !
 ! A30   A(14,13,15)           108.3733         estimate D2E/DX2                !
 ! A31   A(6,16,17)            108.3849         estimate D2E/DX2                !
 ! D1    D(1,2,3,4)            178.9785         estimate D2E/DX2                !
 ! D2    D(1,2,4,5)           -179.8129         estimate D2E/DX2                !
 ! D3    D(3,2,4,5)             -0.6561         estimate D2E/DX2                !
 ! D4    D(2,4,5,6)           -178.657          estimate D2E/DX2                !
 ! D5    D(2,4,5,18)           -59.7265         estimate D2E/DX2                !
 ! D6    D(2,4,5,19)            60.5359         estimate D2E/DX2                !
 ! D7    D(4,5,6,7)            -57.6205         estimate D2E/DX2                !
 ! D8    D(4,5,6,16)            64.724          estimate D2E/DX2                !
 ! D9    D(4,5,6,20)          -178.4413         estimate D2E/DX2                !
 ! D10   D(18,5,6,7)          -177.1249         estimate D2E/DX2                !
 ! D11   D(18,5,6,16)          -54.7805         estimate D2E/DX2                !
 ! D12   D(18,5,6,20)           62.0542         estimate D2E/DX2                !
 ! D13   D(19,5,6,7)            63.6553         estimate D2E/DX2                !
 ! D14   D(19,5,6,16)         -174.0002         estimate D2E/DX2                !
 ! D15   D(19,5,6,20)          -57.1656         estimate D2E/DX2                !
 ! D16   D(5,6,7,8)            -54.5649         estimate D2E/DX2                !
 ! D17   D(5,6,7,12)            63.8012         estimate D2E/DX2                !
 ! D18   D(5,6,7,21)          -178.0308         estimate D2E/DX2                !
 ! D19   D(16,6,7,8)          -175.4373         estimate D2E/DX2                !
 ! D20   D(16,6,7,12)          -57.0712         estimate D2E/DX2                !
 ! D21   D(16,6,7,21)           61.0968         estimate D2E/DX2                !
 ! D22   D(20,6,7,8)            63.7793         estimate D2E/DX2                !
 ! D23   D(20,6,7,12)         -177.8546         estimate D2E/DX2                !
 ! D24   D(20,6,7,21)          -59.6866         estimate D2E/DX2                !
 ! D25   D(5,6,16,17)          149.4724         estimate D2E/DX2                !
 ! D26   D(7,6,16,17)          -85.6047         estimate D2E/DX2                !
 ! D27   D(20,6,16,17)          35.3607         estimate D2E/DX2                !
 ! D28   D(6,7,8,9)            -87.3549         estimate D2E/DX2                !
 ! D29   D(12,7,8,9)           154.9926         estimate D2E/DX2                !
 ! D30   D(21,7,8,9)            33.6141         estimate D2E/DX2                !
 ! D31   D(6,7,12,13)          147.3242         estimate D2E/DX2                !
 ! D32   D(8,7,12,13)          -93.8381         estimate D2E/DX2                !
 ! D33   D(21,7,12,13)          29.6258         estimate D2E/DX2                !
 ! D34   D(7,8,9,10)             9.6769         estimate D2E/DX2                !
 ! D35   D(7,8,9,11)          -174.8854         estimate D2E/DX2                !
 ! D36   D(8,9,10,11)          174.4909         estimate D2E/DX2                !
 ! D37   D(7,12,13,14)          47.9227         estimate D2E/DX2                !
 ! D38   D(7,12,13,15)         -69.8313         estimate D2E/DX2                !
 ! D39   D(12,13,14,15)       -117.5865         estimate D2E/DX2                !
 --------------------------------------------------------------------------------
 Trust Radius=3.00D-01 FncErr=1.00D-07 GrdErr=1.00D-07 EigMax=2.50D+02 EigMin=1.00D-04
 Number of steps in this run=    100 maximum allowed number of steps=    126.
 GradGradGradGradGradGradGradGradGradGradGradGradGradGradGradGradGradGrad

                          Input orientation:                          
 ---------------------------------------------------------------------
 Center     Atomic      Atomic             Coordinates (Angstroms)
 Number     Number       Type             X           Y           Z
 ---------------------------------------------------------------------
      1          8           0        3.863580    1.428296    0.996057
      2          7           0        3.366908    0.533549    0.317037
      3          8           0        3.879522   -0.471454   -0.174982
      4          8           0        1.977861    0.717107    0.106409
      5          6           0        1.397861   -0.322092   -0.677804
      6          6           0       -0.101891   -0.059932   -0.905855
      7          6           0       -0.930396    0.080371    0.399061
      8          8           0       -0.728795   -1.070865    1.221954
      9          7           0       -1.615019   -2.128402    0.929004
     10          8           0       -2.303989   -2.015557   -0.083215
     11          8           0       -1.499372   -3.071259    1.706092
     12          8           0       -0.452103    1.243749    1.099640
     13          7           0       -1.531059    1.893795    1.830120
     14          8           0       -2.254442    0.916165    2.567555
     15          8           0       -2.411014    2.483019    0.885283
     16          8           0       -0.213216    1.135340   -1.689611
     17          7           0       -1.411362    1.037004   -2.508621
     18          1           0        1.892756   -0.352159   -1.657232
     19          1           0        1.522790   -1.287650   -0.172659
     20          1           0       -0.464437   -0.917631   -1.488507
     21          1           0       -1.984183    0.228607    0.128717
 ---------------------------------------------------------------------
                    Distance matrix (angstroms):
                    1          2          3          4          5
     1  O    0.000000
     2  N    1.228138   0.000000
     3  O    2.231734   1.230808   0.000000
     4  O    2.202997   1.416866   2.260127   0.000000
     5  C    3.456217   2.366216   2.536489   1.425246   0.000000
     6  C    4.642957   3.725621   4.068805   2.440048   1.539478
     7  C    5.015527   4.321912   4.875382   2.991494   2.596612
     8  O    5.233234   4.490858   4.852557   3.430346   2.948289
     9  N    6.532200   5.681556   5.844163   4.656433   3.862905
    10  O    7.145898   6.230347   6.374048   5.083075   4.114007
    11  O    7.036433   6.213276   6.263379   5.385337   4.651326
    12  O    4.320869   3.962536   4.830068   2.677421   3.005583
    13  N    5.478547   5.303750   6.236122   4.082682   4.447292
    14  O    6.337355   6.067190   6.860940   4.899923   5.040332
    15  O    6.363587   6.124354   7.030214   4.794508   4.981909
    16  O    4.890695   4.148020   4.650418   2.863813   2.396546
    17  N    6.345146   5.574017   5.976183   4.292732   3.618116
    18  H    3.754211   2.618270   2.481639   2.064219   1.097772
    19  H    3.771148   2.637678   2.494067   2.074614   1.096851
    20  H    5.514359   4.477177   4.560088   3.343792   2.116615
    21  H    6.032235   5.363080   5.913151   3.992107   3.520222
                    6          7          8          9         10
     6  C    0.000000
     7  C    1.552067   0.000000
     8  O    2.437738   1.429384   0.000000
     9  N    3.151958   2.372388   1.410531   0.000000
    10  O    3.057850   2.551914   2.253253   1.229636   0.000000
    11  O    4.224135   3.459022   2.197671   1.227281   2.227900
    12  O    2.417487   1.439800   2.334300   3.571119   3.930866
    13  N    3.653099   2.386888   3.130926   4.122758   4.420555
    14  O    4.201288   2.674699   2.843682   3.516120   3.952725
    15  O    3.873864   2.863802   3.946302   4.679822   4.602894
    16  O    1.433646   2.447419   3.689223   4.412959   4.108527
    17  N    2.342400   3.098563   4.338916   4.677451   3.999689
    18  H    2.151414   3.519320   3.959644   4.706181   4.780910
    19  H    2.164361   2.866438   2.657362   3.430214   3.896420
    20  H    1.098440   2.185415   2.727630   2.938395   2.562077
    21  H    2.167168   1.097965   2.111821   2.516393   2.276722
                   11         12         13         14         15
    11  O    0.000000
    12  O    4.481501   0.000000
    13  N    4.966704   1.456127   0.000000
    14  O    4.148711   2.347447   1.422270   0.000000
    15  O    5.688130   2.327890   1.419234   2.304254   0.000000
    16  O    5.557020   2.801560   3.834119   4.726320   3.643711
    17  N    5.886372   3.739314   4.424149   5.147130   3.822152
    18  H    5.496543   3.955455   5.378517   6.054479   5.746743
    19  H    3.980505   3.453538   4.843419   5.160722   5.550856
    20  H    3.989319   3.371976   4.478290   4.797766   4.581316
    21  H    3.689481   2.078575   2.423416   2.548275   2.415978
                   16         17         18         19         20
    16  O    0.000000
    17  N    1.454648   0.000000
    18  H    2.578531   3.683997   0.000000
    19  H    3.344509   4.412480   1.793314   0.000000
    20  H    2.078038   2.399562   2.429936   2.411937   0.000000
    21  H    2.695330   2.817301   4.307849   3.832586   2.497779
                   21
    21  H    0.000000
 Stoichiometry    C3H4N4O10
 Framework group  C1[X(C3H4N4O10)]
 Deg. of freedom    57
 Full point group                 C1      NOp   1
 Largest Abelian subgroup         C1      NOp   1
 Largest concise Abelian subgroup C1      NOp   1
                         Standard orientation:                         
 ---------------------------------------------------------------------
 Center     Atomic      Atomic             Coordinates (Angstroms)
 Number     Number       Type             X           Y           Z
 ---------------------------------------------------------------------
      1          8           0        3.900360   -0.585928   -1.365922
      2          7           0        3.389784    0.186687   -0.559263
      3          8           0        3.807025    1.249624   -0.099955
      4          8           0        2.109891   -0.242709   -0.129144
      5          6           0        1.513054    0.654234    0.803917
      6          6           0        0.141897    0.127634    1.265015
      7          6           0       -0.869048   -0.113688    0.112337
      8          8           0       -1.010075    1.080440   -0.660521
      9          7           0       -1.993811    1.957556   -0.158000
     10          8           0       -2.464691    1.694485    0.947019
     11          8           0       -2.175515    2.930174   -0.884097
     12          8           0       -0.335479   -1.153211   -0.728923
     13          7           0       -1.403251   -1.957988   -1.305555
     14          8           0       -2.397718   -1.098632   -1.849057
     15          8           0       -1.992169   -2.721067   -0.263869
     16          8           0        0.370909   -1.092865    1.981448
     17          7           0       -0.663162   -1.230743    2.995198
     18          1           0        2.161171    0.739186    1.685864
     19          1           0        1.384613    1.642234    0.345179
     20          1           0       -0.249422    0.890205    1.951984
     21          1           0       -1.819008   -0.451772    0.546850
 ---------------------------------------------------------------------
 Rotational constants (GHZ):           0.5435623           0.3215663           0.2900515
 Standard basis: 6-31G(d) (6D, 7F)
 There are   263 symmetry adapted cartesian basis functions of A   symmetry.
 There are   263 symmetry adapted basis functions of A   symmetry.
   263 basis functions,   492 primitive gaussians,   263 cartesian basis functions
    65 alpha electrons       65 beta electrons
       nuclear repulsion energy      1338.1201578979 Hartrees.
 NAtoms=   21 NActive=   21 NUniq=   21 SFac= 1.00D+00 NAtFMM=   60 NAOKFM=F Big=F
 Integral buffers will be    131072 words long.
 Raffenetti 1 integral format.
 Two-electron integral symmetry is turned on.
 One-electron integrals computed using PRISM.
 NBasis=   263 RedAO= T EigKep=  2.38D-03  NBF=   263
 NBsUse=   263 1.00D-06 EigRej= -1.00D+00 NBFU=   263
 ExpMin= 1.61D-01 ExpMax= 5.48D+03 ExpMxC= 8.25D+02 IAcc=3 IRadAn=         5 AccDes= 0.00D+00
 Harris functional with IExCor=  205 and IRadAn=       5 diagonalized for initial guess.
 HarFok:  IExCor=  205 AccDes= 0.00D+00 IRadAn=         5 IDoV= 1 UseB2=F ITyADJ=14
 ICtDFT=  3500011 ScaDFX=  1.000000  1.000000  1.000000  1.000000
 FoFCou: FMM=F IPFlag=           0 FMFlag=      100000 FMFlg1=           0
         NFxFlg=           0 DoJE=T BraDBF=F KetDBF=T FulRan=T
         wScrn=  0.000000 ICntrl=       500 IOpCl=  0 I1Cent=   200000004 NGrid=           0
         NMat0=    1 NMatS0=      1 NMatT0=    0 NMatD0=    1 NMtDS0=    0 NMtDT0=    0
 Petite list used in FoFCou.
 Requested convergence on RMS density matrix=1.00D-08 within 128 cycles.
 Requested convergence on MAX density matrix=1.00D-06.
 Requested convergence on             energy=1.00D-06.
 No special actions if energy rises.
 Integral accuracy reduced to 1.0D-05 until final iterations.
 Initial convergence to 1.0D-05 achieved.  Increase integral accuracy.
 Restarting incremental Fock formation.
 SCF Done:  E(RHF) =  -1081.38513357     A.U. after   38 cycles
            NFock= 38  Conv=0.99D-08     -V/T= 2.0049

 **********************************************************************

            Population analysis using the SCF Density.

 **********************************************************************

 Orbital symmetries:
       Occupied  (A) (A) (A) (A) (A) (A) (A) (A) (A) (A) (A) (A)
                 (A) (A) (A) (A) (A) (A) (A) (A) (A) (A) (A) (A)
                 (A) (A) (A) (A) (A) (A) (A) (A) (A) (A) (A) (A)
                 (A) (A) (A) (A) (A) (A) (A) (A) (A) (A) (A) (A)
                 (A) (A) (A) (A) (A) (A) (A) (A) (A) (A) (A) (A)
                 (A) (A) (A) (A) (A)
       Virtual   (A) (A) (A) (A) (A) (A) (A) (A) (A) (A) (A) (A)
                 (A) (A) (A) (A) (A) (A) (A) (A) (A) (A) (A) (A)
                 (A) (A) (A) (A) (A) (A) (A) (A) (A) (A) (A) (A)
                 (A) (A) (A) (A) (A) (A) (A) (A) (A) (A) (A) (A)
                 (A) (A) (A) (A) (A) (A) (A) (A) (A) (A) (A) (A)
                 (A) (A) (A) (A) (A) (A) (A) (A) (A) (A) (A) (A)
                 (A) (A) (A) (A) (A) (A) (A) (A) (A) (A) (A) (A)
                 (A) (A) (A) (A) (A) (A) (A) (A) (A) (A) (A) (A)
                 (A) (A) (A) (A) (A) (A) (A) (A) (A) (A) (A) (A)
                 (A) (A) (A) (A) (A) (A) (A) (A) (A) (A) (A) (A)
                 (A) (A) (A) (A) (A) (A) (A) (A) (A) (A) (A) (A)
                 (A) (A) (A) (A) (A) (A) (A) (A) (A) (A) (A) (A)
                 (A) (A) (A) (A) (A) (A) (A) (A) (A) (A) (A) (A)
                 (A) (A) (A) (A) (A) (A) (A) (A) (A) (A) (A) (A)
                 (A) (A) (A) (A) (A) (A) (A) (A) (A) (A) (A) (A)
                 (A) (A) (A) (A) (A) (A) (A) (A) (A) (A) (A) (A)
                 (A) (A) (A) (A) (A) (A)
 The electronic state is 1-A.
 Alpha  occ. eigenvalues --  -20.73581 -20.73009 -20.70972 -20.70576 -20.70475
 Alpha  occ. eigenvalues --  -20.69781 -20.68722 -20.68629 -20.66289 -20.65959
 Alpha  occ. eigenvalues --  -15.98162 -15.95366 -15.93773 -15.74258 -11.45091
 Alpha  occ. eigenvalues --  -11.37794 -11.35676  -1.70044  -1.67014  -1.58149
 Alpha  occ. eigenvalues --   -1.49374  -1.48018  -1.47788  -1.45413  -1.45049
 Alpha  occ. eigenvalues --   -1.41463  -1.34547  -1.14634  -1.07213  -1.01864
 Alpha  occ. eigenvalues --   -0.99676  -0.96489  -0.92136  -0.87473  -0.85559
 Alpha  occ. eigenvalues --   -0.82754  -0.81423  -0.80858  -0.79398  -0.78276
 Alpha  occ. eigenvalues --   -0.77397  -0.75478  -0.74388  -0.71217  -0.70574
 Alpha  occ. eigenvalues --   -0.68972  -0.66087  -0.65446  -0.64408  -0.62328
 Alpha  occ. eigenvalues --   -0.61325  -0.59427  -0.57844  -0.57076  -0.56245
 Alpha  occ. eigenvalues --   -0.56057  -0.54642  -0.54123  -0.53944  -0.53250
 Alpha  occ. eigenvalues --   -0.52586  -0.51363  -0.49333  -0.47882  -0.46390
 Alpha virt. eigenvalues --   -0.10503   0.02060   0.04591   0.07237   0.15623
 Alpha virt. eigenvalues --    0.19313   0.21338   0.23369   0.23916   0.25703
 Alpha virt. eigenvalues --    0.26156   0.27783   0.27883   0.28936   0.29650
 Alpha virt. eigenvalues --    0.31992   0.33749   0.37581   0.40392   0.41932
 Alpha virt. eigenvalues --    0.44349   0.45704   0.55810   0.56573   0.66736
 Alpha virt. eigenvalues --    0.69520   0.70242   0.71907   0.73288   0.75395
 Alpha virt. eigenvalues --    0.77988   0.79511   0.80584   0.81735   0.82222
 Alpha virt. eigenvalues --    0.83592   0.84763   0.85329   0.86320   0.86522
 Alpha virt. eigenvalues --    0.88074   0.88541   0.90813   0.90924   0.93981
 Alpha virt. eigenvalues --    0.95823   0.98839   1.00910   1.01726   1.01894
 Alpha virt. eigenvalues --    1.03115   1.04966   1.05428   1.05662   1.07306
 Alpha virt. eigenvalues --    1.07929   1.09236   1.10581   1.11733   1.12446
 Alpha virt. eigenvalues --    1.13173   1.15903   1.18083   1.18598   1.19489
 Alpha virt. eigenvalues --    1.19641   1.21108   1.21522   1.22203   1.23883
 Alpha virt. eigenvalues --    1.25174   1.26971   1.27453   1.29133   1.31018
 Alpha virt. eigenvalues --    1.32606   1.33371   1.34115   1.36701   1.39049
 Alpha virt. eigenvalues --    1.39100   1.41901   1.44800   1.47964   1.50714
 Alpha virt. eigenvalues --    1.51099   1.53224   1.54271   1.57671   1.57902
 Alpha virt. eigenvalues --    1.61322   1.61845   1.62336   1.65046   1.68710
 Alpha virt. eigenvalues --    1.69141   1.72433   1.73771   1.74610   1.77894
 Alpha virt. eigenvalues --    1.79677   1.83844   1.85964   1.86768   1.91777
 Alpha virt. eigenvalues --    1.93194   1.94734   1.97233   1.98510   2.00404
 Alpha virt. eigenvalues --    2.01923   2.02685   2.03043   2.03556   2.04301
 Alpha virt. eigenvalues --    2.05176   2.05321   2.05863   2.06923   2.07534
 Alpha virt. eigenvalues --    2.08902   2.11222   2.13443   2.13956   2.15841
 Alpha virt. eigenvalues --    2.18419   2.19671   2.22967   2.24077   2.24458
 Alpha virt. eigenvalues --    2.25500   2.26385   2.26805   2.27747   2.30300
 Alpha virt. eigenvalues --    2.31027   2.33430   2.34423   2.36288   2.37081
 Alpha virt. eigenvalues --    2.37658   2.39819   2.42902   2.43881   2.46840
 Alpha virt. eigenvalues --    2.49493   2.50133   2.54334   2.56543   2.60056
 Alpha virt. eigenvalues --    2.60399   2.67903   2.70979   2.74376   2.76041
 Alpha virt. eigenvalues --    2.80115   2.82383   2.83709   2.86278   2.92848
 Alpha virt. eigenvalues --    2.96718   2.99009   3.00552   3.01675   3.02509
 Alpha virt. eigenvalues --    3.06430   3.08907   3.11618   3.12464   3.13349
 Alpha virt. eigenvalues --    3.14599   3.15538   3.15704   3.16829   3.17551
 Alpha virt. eigenvalues --    3.29580   3.30531   3.34234   3.36178   3.39370
 Alpha virt. eigenvalues --    3.42271   3.74102   3.77658   3.92883   3.97003
 Alpha virt. eigenvalues --    4.03135   4.11040   4.16814   4.19115   4.20562
 Alpha virt. eigenvalues --    4.22152   4.32716   4.42052   4.45673   4.58496
 Alpha virt. eigenvalues --    4.67588   4.86491   4.98525
          Condensed to atoms (all electrons):
               1          2          3          4          5          6
     1  O    8.177384   0.376655  -0.074084  -0.085744   0.003465  -0.000083
     2  N    0.376655   5.229675   0.321716   0.209281  -0.038166   0.002852
     3  O   -0.074084   0.321716   8.270501  -0.086965   0.000335   0.000625
     4  O   -0.085744   0.209281  -0.086965   8.406511   0.130727  -0.038476
     5  C    0.003465  -0.038166   0.000335   0.130727   4.956639   0.309634
     6  C   -0.000083   0.002852   0.000625  -0.038476   0.309634   5.023042
     7  C    0.000000  -0.000269  -0.000005   0.005083  -0.054868   0.319969
     8  O    0.000000   0.000002   0.000000   0.000146  -0.001059  -0.038990
     9  N    0.000000   0.000000   0.000000   0.000001   0.000513  -0.000035
    10  O    0.000000   0.000000   0.000000   0.000000   0.000120  -0.003527
    11  O    0.000000   0.000000   0.000000   0.000000  -0.000010  -0.000153
    12  O   -0.000009   0.000032  -0.000001  -0.005977   0.001191  -0.048631
    13  N    0.000000   0.000000   0.000000   0.000066  -0.000201   0.003939
    14  O    0.000000   0.000000   0.000000  -0.000001  -0.000006   0.000554
    15  O    0.000000   0.000000   0.000000  -0.000002   0.000009  -0.001445
    16  O    0.000000  -0.000084  -0.000002   0.003815  -0.051195   0.138756
    17  N    0.000000   0.000001   0.000000  -0.000031   0.004846  -0.051894
    18  H   -0.000020  -0.003801   0.002112  -0.031063   0.398828  -0.035585
    19  H   -0.000005  -0.003577   0.002005  -0.030819   0.390909  -0.031696
    20  H    0.000000  -0.000021   0.000010   0.001613  -0.038906   0.400705
    21  H    0.000000   0.000002   0.000000  -0.000038   0.003334  -0.038009
               7          8          9         10         11         12
     1  O    0.000000   0.000000   0.000000   0.000000   0.000000  -0.000009
     2  N   -0.000269   0.000002   0.000000   0.000000   0.000000   0.000032
     3  O   -0.000005   0.000000   0.000000   0.000000   0.000000  -0.000001
     4  O    0.005083   0.000146   0.000001   0.000000   0.000000  -0.005977
     5  C   -0.054868  -0.001059   0.000513   0.000120  -0.000010   0.001191
     6  C    0.319969  -0.038990  -0.000035  -0.003527  -0.000153  -0.048631
     7  C    4.740944   0.104172  -0.027140  -0.003280   0.002240   0.165390
     8  O    0.104172   8.450717   0.196521  -0.087415  -0.083112  -0.027052
     9  N   -0.027140   0.196521   5.245325   0.310138   0.375150   0.001028
    10  O   -0.003280  -0.087415   0.310138   8.280799  -0.075133   0.000113
    11  O    0.002240  -0.083112   0.375150  -0.075133   8.157702  -0.000027
    12  O    0.165390  -0.027052   0.001028   0.000113  -0.000027   8.318260
    13  N   -0.037130   0.001971   0.000001  -0.000005   0.000003   0.145198
    14  O    0.005776  -0.004251   0.000656  -0.000062  -0.000027  -0.047436
    15  O   -0.002445   0.000136   0.000000   0.000000   0.000000  -0.052435
    16  O   -0.040729   0.001131   0.000001   0.000046   0.000000   0.002845
    17  N   -0.004706   0.000017  -0.000027   0.000000   0.000000   0.000193
    18  H    0.004597  -0.000027  -0.000008  -0.000002   0.000000  -0.000085
    19  H   -0.005906   0.003006  -0.000006   0.000028  -0.000021   0.000303
    20  H   -0.033226   0.001379  -0.000687   0.004921   0.000001   0.001781
    21  H    0.394775  -0.026195  -0.002573   0.005623   0.000003  -0.028867
              13         14         15         16         17         18
     1  O    0.000000   0.000000   0.000000   0.000000   0.000000  -0.000020
     2  N    0.000000   0.000000   0.000000  -0.000084   0.000001  -0.003801
     3  O    0.000000   0.000000   0.000000  -0.000002   0.000000   0.002112
     4  O    0.000066  -0.000001  -0.000002   0.003815  -0.000031  -0.031063
     5  C   -0.000201  -0.000006   0.000009  -0.051195   0.004846   0.398828
     6  C    0.003939   0.000554  -0.001445   0.138756  -0.051894  -0.035585
     7  C   -0.037130   0.005776  -0.002445  -0.040729  -0.004706   0.004597
     8  O    0.001971  -0.004251   0.000136   0.001131   0.000017  -0.000027
     9  N    0.000001   0.000656   0.000000   0.000001  -0.000027  -0.000008
    10  O   -0.000005  -0.000062   0.000000   0.000046   0.000000  -0.000002
    11  O    0.000003  -0.000027   0.000000   0.000000   0.000000   0.000000
    12  O    0.145198  -0.047436  -0.052435   0.002845   0.000193  -0.000085
    13  N    6.002181   0.182272   0.178006  -0.000442  -0.000049   0.000002
    14  O    0.182272   8.212038  -0.081536   0.000000  -0.000001   0.000000
    15  O    0.178006  -0.081536   8.191136   0.000156   0.000211   0.000000
    16  O   -0.000442   0.000000   0.000156   8.294641   0.135737  -0.000074
    17  N   -0.000049  -0.000001   0.000211   0.135737   6.783346  -0.000022
    18  H    0.000002   0.000000   0.000000  -0.000074  -0.000022   0.460199
    19  H   -0.000003   0.000000   0.000000   0.002372  -0.000062  -0.025815
    20  H   -0.000042   0.000003  -0.000011  -0.020644   0.001074  -0.001755
    21  H   -0.003795  -0.003703   0.006947  -0.000095   0.004840  -0.000017
              19         20         21
     1  O   -0.000005   0.000000   0.000000
     2  N   -0.003577  -0.000021   0.000002
     3  O    0.002005   0.000010   0.000000
     4  O   -0.030819   0.001613  -0.000038
     5  C    0.390909  -0.038906   0.003334
     6  C   -0.031696   0.400705  -0.038009
     7  C   -0.005906  -0.033226   0.394775
     8  O    0.003006   0.001379  -0.026195
     9  N   -0.000006  -0.000687  -0.002573
    10  O    0.000028   0.004921   0.005623
    11  O   -0.000021   0.000001   0.000003
    12  O    0.000303   0.001781  -0.028867
    13  N   -0.000003  -0.000042  -0.003795
    14  O    0.000000   0.000003  -0.003703
    15  O    0.000000  -0.000011   0.006947
    16  O    0.002372  -0.020644  -0.000095
    17  N   -0.000062   0.001074   0.004840
    18  H   -0.025815  -0.001755  -0.000017
    19  H    0.473234   0.000248  -0.000068
    20  H    0.000248   0.427367  -0.002627
    21  H   -0.000068  -0.002627   0.401083
 Mulliken charges:
               1
     1  O   -0.397560
     2  N    0.905700
     3  O   -0.436247
     4  O   -0.478126
     5  C   -0.016138
     6  C    0.088448
     7  C    0.466757
     8  O   -0.491097
     9  N    0.901142
    10  O   -0.432366
    11  O   -0.376616
    12  O   -0.425815
    13  N    0.528029
    14  O   -0.264277
    15  O   -0.238727
    16  O   -0.466235
    17  N    0.126526
    18  H    0.232535
    19  H    0.225871
    20  H    0.258816
    21  H    0.289380
 Sum of Mulliken charges =   0.00000
 Mulliken charges with hydrogens summed into heavy atoms:
               1
     1  O   -0.397560
     2  N    0.905700
     3  O   -0.436247
     4  O   -0.478126
     5  C    0.442268
     6  C    0.347264
     7  C    0.756137
     8  O   -0.491097
     9  N    0.901142
    10  O   -0.432366
    11  O   -0.376616
    12  O   -0.425815
    13  N    0.528029
    14  O   -0.264277
    15  O   -0.238727
    16  O   -0.466235
    17  N    0.126526
 Electronic spatial extent (au):  <R**2>=           4060.4383
 Charge=              0.0000 electrons
 Dipole moment (field-independent basis, Debye):
    X=             -0.4609    Y=              1.3819    Z=              2.6164  Tot=              2.9946
 Quadrupole moment (field-independent basis, Debye-Ang):
   XX=           -113.1055   YY=           -103.9975   ZZ=            -96.6048
   XY=              2.8288   XZ=              3.5871   YZ=              5.6527
 Traceless Quadrupole moment (field-independent basis, Debye-Ang):
   XX=             -8.5362   YY=              0.5717   ZZ=              7.9644
   XY=              2.8288   XZ=              3.5871   YZ=              5.6527
 Octapole moment (field-independent basis, Debye-Ang**2):
  XXX=            -39.6044  YYY=             -2.1887  ZZZ=             -5.8857  XYY=             14.5177
  XXY=             -8.8627  XXZ=             21.0730  XZZ=              9.3697  YZZ=              6.1871
  YYZ=             -8.6190  XYZ=              0.8663
 Hexadecapole moment (field-independent basis, Debye-Ang**3):
 XXXX=          -2899.5241 YYYY=          -1317.6315 ZZZZ=           -925.3957 XXXY=            -44.7363
 XXXZ=             68.7523 YYYX=              6.5393 YYYZ=             47.9232 ZZZX=              8.4120
 ZZZY=             40.5201 XXYY=           -731.1021 XXZZ=           -627.8354 YYZZ=           -371.7247
 XXYZ=            -35.2171 YYXZ=             -7.9854 ZZXY=             15.8996
 N-N= 1.338120157898D+03 E-N=-5.221505632514D+03  KE= 1.076105111572D+03
 Calling FoFJK, ICntrl=      2127 FMM=F ISym2X=0 I1Cent= 0 IOpClX= 0 NMat=1 NMatS=1 NMatT=0.
 ***** Axes restored to original set *****
 -------------------------------------------------------------------
 Center     Atomic                   Forces (Hartrees/Bohr)
 Number     Number              X              Y              Z
 -------------------------------------------------------------------
      1        8          -0.036616300   -0.074248537   -0.056384522
      2        7           0.012302131    0.009508128    0.013315545
      3        8          -0.030914087    0.072691527    0.035897780
      4        8           0.050886884   -0.010759862    0.004727115
      5        6           0.001471040   -0.012833687   -0.009210117
      6        6           0.026651744    0.012154385    0.008155910
      7        6          -0.007544723    0.017205700   -0.011554556
      8        8          -0.034746979   -0.020766287   -0.016483889
      9        7           0.004541296   -0.035924328    0.006759992
     10        8           0.040719014   -0.010610251    0.070599535
     11        8          -0.014031304    0.080565516   -0.065338882
     12        8          -0.031200945    0.021266249    0.036446035
     13        7          -0.189826324   -0.151382514   -0.121727580
     14        8           0.098027870    0.114801075   -0.032780690
     15        8           0.113820831   -0.015075603    0.105899139
     16        8          -0.114665338   -0.032430405   -0.061921494
     17        7           0.102851864    0.017885428    0.066064804
     18        1          -0.006656326   -0.001035026    0.011998745
     19        1           0.000015280    0.011574863   -0.005992965
     20        1          -0.000645503    0.012161911    0.010950948
     21        1           0.015559874   -0.004748281    0.010579146
 -------------------------------------------------------------------
 Cartesian Forces:  Max     0.189826324 RMS     0.056685355

 GradGradGradGradGradGradGradGradGradGradGradGradGradGradGradGradGradGrad
 Berny optimization.
 FormGI is forming the generalized inverse of G from B-inverse, IUseBI=4.
 Internal  Forces:  Max     0.147331340 RMS     0.036678295
 Search for a local minimum.
 Step number   1 out of a maximum of  100
 All quantities printed in internal units (Hartrees-Bohrs-Radians)
 Mixed Optimization -- RFO/linear search
 Second derivative matrix not updated -- first step.
 ITU=  0
     Eigenvalues ---    0.00230   0.00244   0.00552   0.01072   0.01156
     Eigenvalues ---    0.01165   0.01247   0.01303   0.01358   0.02908
     Eigenvalues ---    0.02965   0.04066   0.04702   0.05036   0.05647
     Eigenvalues ---    0.05917   0.06440   0.07159   0.07460   0.09068
     Eigenvalues ---    0.11317   0.13795   0.17073   0.18286   0.19795
     Eigenvalues ---    0.19987   0.20300   0.22110   0.24955   0.24998
     Eigenvalues ---    0.25000   0.25000   0.25000   0.25000   0.25000
     Eigenvalues ---    0.25000   0.25000   0.27476   0.28565   0.33855
     Eigenvalues ---    0.33908   0.33930   0.34033   0.37453   0.37642
     Eigenvalues ---    0.39613   0.40470   0.41078   0.41680   0.42120
     Eigenvalues ---    0.42576   0.42936   0.43919   0.90751   0.91238
     Eigenvalues ---    0.91867   0.92229
 RFO step:  Lambda=-1.98583245D-01 EMin= 2.30000000D-03
 Linear search not attempted -- first point.
 Maximum step size (   0.300) exceeded in Quadratic search.
    -- Step size scaled by   0.562
 Iteration  1 RMS(Cart)=  0.04452360 RMS(Int)=  0.00329195
 Iteration  2 RMS(Cart)=  0.00383180 RMS(Int)=  0.00139874
 Iteration  3 RMS(Cart)=  0.00003356 RMS(Int)=  0.00139848
 Iteration  4 RMS(Cart)=  0.00000031 RMS(Int)=  0.00139848
 Variable       Old X    -DE/DX   Delta X   Delta X   Delta X     New X
                                 (Linear)    (Quad)   (Total)
    R1        2.32084  -0.10008   0.00000  -0.05038  -0.05038   2.27046
    R2        2.32589  -0.08658   0.00000  -0.04403  -0.04403   2.28186
    R3        2.67749  -0.05624   0.00000  -0.05037  -0.05037   2.62711
    R4        2.69332  -0.00516   0.00000  -0.00472  -0.00472   2.68861
    R5        2.90919  -0.00923   0.00000  -0.01073  -0.01073   2.89847
    R6        2.07449  -0.01368   0.00000  -0.01430  -0.01430   2.06019
    R7        2.07275  -0.01295   0.00000  -0.01351  -0.01351   2.05923
    R8        2.93298  -0.01272   0.00000  -0.01512  -0.01512   2.91787
    R9        2.70920  -0.01347   0.00000  -0.01256  -0.01256   2.69664
   R10        2.07575  -0.01509   0.00000  -0.01580  -0.01580   2.05995
   R11        2.70114  -0.01375   0.00000  -0.01269  -0.01269   2.68845
   R12        2.72083  -0.03352   0.00000  -0.03171  -0.03171   2.68912
   R13        2.07485  -0.01818   0.00000  -0.01902  -0.01902   2.05583
   R14        2.66552  -0.04763   0.00000  -0.04201  -0.04201   2.62351
   R15        2.32367  -0.08191   0.00000  -0.04147  -0.04147   2.28221
   R16        2.31922  -0.10459   0.00000  -0.05248  -0.05248   2.26674
   R17        2.75168  -0.06376   0.00000  -0.06258  -0.06258   2.68910
   R18        2.68770  -0.14577   0.00000  -0.13228  -0.13228   2.55542
   R19        2.68196  -0.14733   0.00000  -0.13273  -0.13273   2.54924
   R20        2.74889  -0.12312   0.00000  -0.12043  -0.12043   2.62845
    A1        2.27505  -0.00749   0.00000  -0.00939  -0.00939   2.26566
    A2        1.96522   0.00202   0.00000   0.00254   0.00254   1.96776
    A3        2.04279   0.00549   0.00000   0.00689   0.00689   2.04968
    A4        1.96740   0.00664   0.00000   0.00833   0.00833   1.97573
    A5        1.93242  -0.00980   0.00000  -0.01325  -0.01325   1.91917
    A6        1.90437   0.00370   0.00000   0.00506   0.00505   1.90942
    A7        1.91995   0.00220   0.00000   0.00248   0.00250   1.92245
    A8        1.88776   0.00150   0.00000   0.00166   0.00166   1.88942
    A9        1.90614   0.00402   0.00000   0.00583   0.00583   1.91196
   A10        1.91286  -0.00162   0.00000  -0.00177  -0.00178   1.91108
   A11        1.99422   0.00838   0.00000   0.01258   0.01260   2.00682
   A12        1.87403   0.00096   0.00000   0.00321   0.00323   1.87726
   A13        1.84123  -0.00017   0.00000   0.00141   0.00145   1.84267
   A14        1.92071  -0.00505   0.00000  -0.00732  -0.00739   1.91332
   A15        1.91810  -0.00561   0.00000  -0.01107  -0.01109   1.90701
   A16        1.91282   0.00178   0.00000   0.00169   0.00162   1.91444
   A17        1.91339   0.00500   0.00000   0.00682   0.00680   1.92019
   A18        1.88054   0.00047   0.00000   0.00041   0.00042   1.88096
   A19        1.89391   0.00485   0.00000   0.01116   0.01114   1.90504
   A20        1.90054  -0.00807   0.00000  -0.01424  -0.01425   1.88630
   A21        1.96693  -0.00251   0.00000  -0.00421  -0.00430   1.96262
   A22        1.90662   0.00043   0.00000   0.00032   0.00026   1.90688
   A23        1.97759   0.01395   0.00000   0.01749   0.01749   1.99509
   A24        2.04226   0.00669   0.00000   0.00854   0.00852   2.05078
   A25        1.96631  -0.00061   0.00000  -0.00062  -0.00064   1.96568
   A26        2.27120  -0.00571   0.00000  -0.00701  -0.00703   2.26417
   A27        1.93763  -0.00354   0.00000  -0.00444  -0.00444   1.93319
   A28        1.90722   0.04153   0.00000   0.06956   0.06413   1.97135
   A29        1.88682  -0.00125   0.00000   0.02379   0.01499   1.90181
   A30        1.89147   0.06291   0.00000   0.10908   0.10377   1.99524
   A31        1.89167   0.02793   0.00000   0.03501   0.03501   1.92669
    D1        3.12376   0.00132   0.00000   0.00321   0.00320   3.12697
    D2       -3.13833  -0.00051   0.00000  -0.00132  -0.00133  -3.13965
    D3       -0.01145   0.00047   0.00000   0.00120   0.00121  -0.01024
    D4       -3.11815   0.00069   0.00000   0.00122   0.00122  -3.11693
    D5       -1.04242  -0.00108   0.00000  -0.00161  -0.00162  -1.04404
    D6        1.05655   0.00058   0.00000   0.00090   0.00090   1.05745
    D7       -1.00567  -0.00067   0.00000  -0.00250  -0.00250  -1.00817
    D8        1.12965  -0.00093   0.00000  -0.00126  -0.00124   1.12841
    D9       -3.11439   0.00149   0.00000   0.00287   0.00287  -3.11152
   D10       -3.09141  -0.00033   0.00000  -0.00188  -0.00188  -3.09330
   D11       -0.95610  -0.00059   0.00000  -0.00064  -0.00062  -0.95672
   D12        1.08305   0.00183   0.00000   0.00350   0.00348   1.08653
   D13        1.11099  -0.00155   0.00000  -0.00405  -0.00406   1.10694
   D14       -3.03688  -0.00181   0.00000  -0.00281  -0.00279  -3.03967
   D15       -0.99773   0.00061   0.00000   0.00133   0.00131  -0.99642
   D16       -0.95234   0.00438   0.00000   0.00941   0.00944  -0.94290
   D17        1.11354  -0.00225   0.00000  -0.00362  -0.00362   1.10992
   D18       -3.10722   0.00116   0.00000   0.00304   0.00303  -3.10419
   D19       -3.06196   0.00107   0.00000   0.00194   0.00200  -3.05996
   D20       -0.99608  -0.00556   0.00000  -0.01109  -0.01106  -1.00714
   D21        1.06634  -0.00215   0.00000  -0.00443  -0.00441   1.06193
   D22        1.11316   0.00567   0.00000   0.01161   0.01159   1.12475
   D23       -3.10415  -0.00095   0.00000  -0.00142  -0.00147  -3.10562
   D24       -1.04173   0.00245   0.00000   0.00524   0.00519  -1.03654
   D25        2.60879  -0.00137   0.00000  -0.00075  -0.00073   2.60806
   D26       -1.49408   0.00644   0.00000   0.01233   0.01233  -1.48176
   D27        0.61716  -0.00258   0.00000  -0.00495  -0.00497   0.61219
   D28       -1.52463  -0.00589   0.00000  -0.01414  -0.01414  -1.53877
   D29        2.70513  -0.00463   0.00000  -0.01026  -0.01022   2.69492
   D30        0.58668   0.00211   0.00000   0.00203   0.00198   0.58866
   D31        2.57129   0.00089   0.00000   0.00276   0.00275   2.57405
   D32       -1.63778   0.00265   0.00000   0.00325   0.00325  -1.63453
   D33        0.51707  -0.00538   0.00000  -0.01093  -0.01092   0.50615
   D34        0.16889  -0.00242   0.00000  -0.00621  -0.00624   0.16266
   D35       -3.05233   0.00159   0.00000   0.00400   0.00403  -3.04830
   D36        3.04544   0.00529   0.00000   0.01289   0.01288   3.05832
   D37        0.83641   0.04685   0.00000   0.08600   0.08596   0.92237
   D38       -1.21879  -0.05062   0.00000  -0.09638  -0.09635  -1.31513
   D39       -2.05227  -0.05740   0.00000  -0.12923  -0.13562  -2.18789
         Item               Value     Threshold  Converged?
 Maximum Force            0.147331     0.000450     NO 
 RMS     Force            0.036678     0.000300     NO 
 Maximum Displacement     0.198689     0.001800     NO 
 RMS     Displacement     0.044445     0.001200     NO 
 Predicted change in Energy=-9.271263D-02
 GradGradGradGradGradGradGradGradGradGradGradGradGradGradGradGradGradGrad

                          Input orientation:                          
 ---------------------------------------------------------------------
 Center     Atomic      Atomic             Coordinates (Angstroms)
 Number     Number       Type             X           Y           Z
 ---------------------------------------------------------------------
      1          8           0        3.789237    1.432183    0.992453
      2          7           0        3.322215    0.550753    0.322737
      3          8           0        3.854590   -0.421860   -0.155468
      4          8           0        1.958386    0.707389    0.103388
      5          6           0        1.394663   -0.332798   -0.686831
      6          6           0       -0.099434   -0.068626   -0.911412
      7          6           0       -0.939400    0.062715    0.377523
      8          8           0       -0.745945   -1.079426    1.203400
      9          7           0       -1.611175   -2.131571    0.935538
     10          8           0       -2.300831   -2.048759   -0.052408
     11          8           0       -1.491246   -3.037026    1.713090
     12          8           0       -0.471570    1.204510    1.086346
     13          7           0       -1.536148    1.830637    1.793174
     14          8           0       -2.217938    0.973905    2.586778
     15          8           0       -2.305872    2.507983    0.916520
     16          8           0       -0.214164    1.126837   -1.682143
     17          7           0       -1.350891    1.080332   -2.482357
     18          1           0        1.887225   -0.356445   -1.659131
     19          1           0        1.524330   -1.293923   -0.189970
     20          1           0       -0.462513   -0.916471   -1.492447
     21          1           0       -1.983520    0.209659    0.109662
 ---------------------------------------------------------------------
                    Distance matrix (angstroms):
                    1          2          3          4          5
     1  O    0.000000
     2  N    1.201478   0.000000
     3  O    2.181621   1.207510   0.000000
     4  O    2.160505   1.390209   2.222117   0.000000
     5  C    3.416012   2.348478   2.518238   1.422750   0.000000
     6  C    4.582455   3.689775   4.041105   2.422115   1.533802
     7  C    4.961209   4.289820   4.847808   2.981261   2.595598
     8  O    5.188502   4.470232   4.841883   3.422884   2.951716
     9  N    6.470552   5.648781   5.829922   4.636155   3.860405
    10  O    7.092082   6.206195   6.367624   5.075584   4.123553
    11  O    6.955333   6.162358   6.237674   5.339639   4.626116
    12  O    4.267919   3.924705   4.785692   2.667962   2.998383
    13  N    5.399967   5.234881   6.158815   4.040894   4.406872
    14  O    6.232018   5.999853   6.807618   4.866203   5.047263
    15  O    6.189788   5.988213   6.905392   4.699704   4.933024
    16  O    4.824306   4.105776   4.613454   2.843243   2.389457
    17  N    6.214420   5.476032   5.896442   4.216215   3.571962
    18  H    3.721256   2.609599   2.477056   2.059923   1.090204
    19  H    3.736253   2.626422   2.488332   2.068747   1.089700
    20  H    5.456032   4.446550   4.546375   3.323305   2.106844
    21  H    5.966458   5.320956   5.878150   3.973210   3.512945
                    6          7          8          9         10
     6  C    0.000000
     7  C    1.544068   0.000000
     8  O    2.431485   1.422668   0.000000
     9  N    3.154731   2.361684   1.388302   0.000000
    10  O    3.083012   2.548854   2.221336   1.207693   0.000000
    11  O    4.199590   3.420040   2.155796   1.199508   2.179240
    12  O    2.397999   1.423022   2.303334   3.528581   3.902143
    13  N    3.603627   2.342162   3.072576   4.054659   4.363556
    14  O    4.220457   2.710301   2.880393   3.569136   4.013560
    15  O    3.853391   2.852560   3.922394   4.691314   4.658620
    16  O    1.426998   2.429104   3.671069   4.406940   4.134565
    17  N    2.313896   3.063295   4.314547   4.697454   4.074094
    18  H    2.142134   3.509054   3.956054   4.703422   4.794298
    19  H    2.158342   2.869231   2.672384   3.435086   3.901354
    20  H    1.090077   2.164027   2.715599   2.948051   2.595227
    21  H    2.160975   1.087901   2.095136   2.510392   2.286351
                   11         12         13         14         15
    11  O    0.000000
    12  O    4.407174   0.000000
    13  N    4.868529   1.423013   0.000000
    14  O    4.168811   2.313930   1.352270   0.000000
    15  O    5.660854   2.256667   1.348998   2.269557   0.000000
    16  O    5.522347   2.781515   3.784284   4.718282   3.610520
    17  N    5.879976   3.677535   4.344818   5.143853   3.808220
    18  H    5.474620   3.941845   5.331155   6.053919   5.693943
    19  H    3.969100   3.443076   4.802318   5.182465   5.509016
    20  H    3.978758   3.338984   4.415269   4.826501   4.574711
    21  H    3.654351   2.056608   2.379480   2.602907   2.457077
                   16         17         18         19         20
    16  O    0.000000
    17  N    1.390918   0.000000
    18  H    2.572254   3.636952   0.000000
    19  H    3.333020   4.377101   1.780166   0.000000
    20  H    2.067068   2.399241   2.421297   2.405506   0.000000
    21  H    2.680001   2.806573   4.293224   3.828257   2.479593
                   21
    21  H    0.000000
 Stoichiometry    C3H4N4O10
 Framework group  C1[X(C3H4N4O10)]
 Deg. of freedom    57
 Full point group                 C1      NOp   1
 Largest Abelian subgroup         C1      NOp   1
 Largest concise Abelian subgroup C1      NOp   1
                         Standard orientation:                         
 ---------------------------------------------------------------------
 Center     Atomic      Atomic             Coordinates (Angstroms)
 Number     Number       Type             X           Y           Z
 ---------------------------------------------------------------------
      1          8           0        3.827457   -0.553455   -1.373154
      2          7           0        3.340819    0.210804   -0.584079
      3          8           0        3.767657    1.256119   -0.156052
      4          8           0        2.092298   -0.203506   -0.134388
      5          6           0        1.505832    0.696047    0.798929
      6          6           0        0.151889    0.151575    1.271091
      7          6           0       -0.874144   -0.108828    0.146995
      8          8           0       -1.046549    1.065907   -0.636751
      9          7           0       -2.023039    1.931243   -0.162364
     10          8           0       -2.491519    1.700330    0.926547
     11          8           0       -2.214733    2.858763   -0.898421
     12          8           0       -0.346880   -1.127821   -0.694812
     13          7           0       -1.392747   -1.928131   -1.233914
     14          8           0       -2.353034   -1.198633   -1.845727
     15          8           0       -1.851651   -2.755647   -0.272446
     16          8           0        0.399783   -1.059621    1.983745
     17          7           0       -0.558660   -1.243644    2.974793
     18          1           0        2.157193    0.791928    1.667883
     19          1           0        1.365396    1.674345    0.339957
     20          1           0       -0.244672    0.904173    1.952710
     21          1           0       -1.806616   -0.454592    0.587985
 ---------------------------------------------------------------------
 Rotational constants (GHZ):           0.5487744           0.3279059           0.2951558
 Standard basis: 6-31G(d) (6D, 7F)
 There are   263 symmetry adapted cartesian basis functions of A   symmetry.
 There are   263 symmetry adapted basis functions of A   symmetry.
   263 basis functions,   492 primitive gaussians,   263 cartesian basis functions
    65 alpha electrons       65 beta electrons
       nuclear repulsion energy      1352.8817757431 Hartrees.
 NAtoms=   21 NActive=   21 NUniq=   21 SFac= 1.00D+00 NAtFMM=   60 NAOKFM=F Big=F
 Integral buffers will be    131072 words long.
 Raffenetti 1 integral format.
 Two-electron integral symmetry is turned on.
 One-electron integrals computed using PRISM.
 NBasis=   263 RedAO= T EigKep=  2.23D-03  NBF=   263
 NBsUse=   263 1.00D-06 EigRej= -1.00D+00 NBFU=   263
 Initial guess from the checkpoint file:  "C:\g16w\Scratch\Gau-14208.chk"
 B after Tr=     0.000000    0.000000    0.000000
         Rot=    0.999952    0.004418   -0.003871   -0.007830 Ang=   1.12 deg.
 ExpMin= 1.61D-01 ExpMax= 5.48D+03 ExpMxC= 8.25D+02 IAcc=3 IRadAn=         5 AccDes= 0.00D+00
 Harris functional with IExCor=  205 and IRadAn=       5 diagonalized for initial guess.
 HarFok:  IExCor=  205 AccDes= 0.00D+00 IRadAn=         5 IDoV= 1 UseB2=F ITyADJ=14
 ICtDFT=  3500011 ScaDFX=  1.000000  1.000000  1.000000  1.000000
 FoFCou: FMM=F IPFlag=           0 FMFlag=      100000 FMFlg1=           0
         NFxFlg=           0 DoJE=T BraDBF=F KetDBF=T FulRan=T
         wScrn=  0.000000 ICntrl=       500 IOpCl=  0 I1Cent=   200000004 NGrid=           0
         NMat0=    1 NMatS0=      1 NMatT0=    0 NMatD0=    1 NMtDS0=    0 NMtDT0=    0
 Petite list used in FoFCou.
 Requested convergence on RMS density matrix=1.00D-08 within 128 cycles.
 Requested convergence on MAX density matrix=1.00D-06.
 Requested convergence on             energy=1.00D-06.
 No special actions if energy rises.
 Integral accuracy reduced to 1.0D-05 until final iterations.
 Initial convergence to 1.0D-05 achieved.  Increase integral accuracy.
 SCF Done:  E(RHF) =  -1081.48848685     A.U. after   24 cycles
            NFock= 24  Conv=0.82D-08     -V/T= 2.0042
 Calling FoFJK, ICntrl=      2127 FMM=F ISym2X=0 I1Cent= 0 IOpClX= 0 NMat=1 NMatS=1 NMatT=0.
 ***** Axes restored to original set *****
 -------------------------------------------------------------------
 Center     Atomic                   Forces (Hartrees/Bohr)
 Number     Number              X              Y              Z
 -------------------------------------------------------------------
      1        8          -0.019704475   -0.043520286   -0.033314698
      2        7           0.001223879    0.009836425    0.009953338
      3        8          -0.018782943    0.040411684    0.019584089
      4        8           0.036265650   -0.008843252    0.002239754
      5        6          -0.001614993   -0.007995723   -0.005821560
      6        6           0.023550898    0.006849818    0.009795557
      7        6          -0.003725994    0.012390177   -0.008586319
      8        8          -0.024022877   -0.013002283   -0.012305365
      9        7           0.008106363   -0.023081949    0.008094259
     10        8           0.022999235   -0.002874886    0.040227944
     11        8          -0.009728571    0.047282173   -0.038974385
     12        8          -0.015995864    0.020251293    0.037561824
     13        7          -0.193135183   -0.115973117   -0.107188318
     14        8           0.098786728    0.106438814   -0.046019253
     15        8           0.104229082   -0.029795660    0.108453672
     16        8          -0.098102441   -0.020436106   -0.058107684
     17        7           0.087518969    0.012010008    0.057890725
     18        1          -0.004100402   -0.000774153    0.007315673
     19        1           0.000189576    0.007298223   -0.003473802
     20        1          -0.002655191    0.008065318    0.006211073
     21        1           0.008698553   -0.004536516    0.006463478
 -------------------------------------------------------------------
 Cartesian Forces:  Max     0.193135183 RMS     0.049112406

 GradGradGradGradGradGradGradGradGradGradGradGradGradGradGradGradGradGrad
 Berny optimization.
 Using GEDIIS/GDIIS optimizer.
 FormGI is forming the generalized inverse of G from B-inverse, IUseBI=4.
 Internal  Forces:  Max     0.144911975 RMS     0.030072353
 Search for a local minimum.
 Step number   2 out of a maximum of  100
 All quantities printed in internal units (Hartrees-Bohrs-Radians)
 Mixed Optimization -- RFO/linear search
 Update second derivatives using D2CorX and points    1    2
 DE= -1.03D-01 DEPred=-9.27D-02 R= 1.11D+00
 TightC=F SS=  1.41D+00  RLast= 3.52D-01 DXNew= 5.0454D-01 1.0558D+00
 Trust test= 1.11D+00 RLast= 3.52D-01 DXMaxT set to 5.05D-01
 ITU=  1  0
 Use linear search instead of GDIIS.
 Linear search step of   0.593 exceeds DXMaxT=   0.505 but not scaled.
 Quartic linear search produced a step of  2.00000.
 Iteration  1 RMS(Cart)=  0.08000193 RMS(Int)=  0.01895825
 Iteration  2 RMS(Cart)=  0.01767478 RMS(Int)=  0.00772755
 Iteration  3 RMS(Cart)=  0.00016495 RMS(Int)=  0.00772703
 Iteration  4 RMS(Cart)=  0.00000258 RMS(Int)=  0.00772703
 Iteration  5 RMS(Cart)=  0.00000010 RMS(Int)=  0.00772703
 Variable       Old X    -DE/DX   Delta X   Delta X   Delta X     New X
                                 (Linear)    (Quad)   (Total)
    R1        2.27046  -0.05816  -0.10076   0.00000  -0.10076   2.16970
    R2        2.28186  -0.04859  -0.08805   0.00000  -0.08805   2.19381
    R3        2.62711  -0.03791  -0.10075   0.00000  -0.10075   2.52636
    R4        2.68861  -0.00280  -0.00943   0.00000  -0.00943   2.67918
    R5        2.89847  -0.00625  -0.02145   0.00000  -0.02145   2.87702
    R6        2.06019  -0.00836  -0.02860   0.00000  -0.02860   2.03158
    R7        2.05923  -0.00800  -0.02703   0.00000  -0.02703   2.03221
    R8        2.91787  -0.00843  -0.03023   0.00000  -0.03023   2.88763
    R9        2.69664  -0.00609  -0.02512   0.00000  -0.02512   2.67151
   R10        2.05995  -0.00870  -0.03161   0.00000  -0.03161   2.02834
   R11        2.68845  -0.00876  -0.02538   0.00000  -0.02538   2.66307
   R12        2.68912  -0.02090  -0.06341   0.00000  -0.06341   2.62571
   R13        2.05583  -0.01055  -0.03804   0.00000  -0.03804   2.01780
   R14        2.62351  -0.03129  -0.08401   0.00000  -0.08401   2.53950
   R15        2.28221  -0.04624  -0.08293   0.00000  -0.08293   2.19928
   R16        2.26674  -0.06193  -0.10496   0.00000  -0.10496   2.16178
   R17        2.68910  -0.04693  -0.12515   0.00000  -0.12515   2.56395
   R18        2.55542  -0.14425  -0.26456   0.00000  -0.26456   2.29086
   R19        2.54924  -0.14491  -0.26545   0.00000  -0.26545   2.28378
   R20        2.62845  -0.10523  -0.24087   0.00000  -0.24087   2.38759
    A1        2.26566  -0.00442  -0.01878   0.00000  -0.01878   2.24688
    A2        1.96776   0.00245   0.00508   0.00000   0.00507   1.97284
    A3        2.04968   0.00199   0.01377   0.00000   0.01376   2.06344
    A4        1.97573   0.00807   0.01666   0.00000   0.01666   1.99239
    A5        1.91917  -0.00582  -0.02650   0.00000  -0.02645   1.89271
    A6        1.90942   0.00219   0.01010   0.00000   0.01006   1.91948
    A7        1.92245   0.00115   0.00499   0.00000   0.00506   1.92751
    A8        1.88942   0.00077   0.00332   0.00000   0.00332   1.89274
    A9        1.91196   0.00273   0.01166   0.00000   0.01166   1.92362
   A10        1.91108  -0.00102  -0.00356   0.00000  -0.00365   1.90743
   A11        2.00682   0.00616   0.02521   0.00000   0.02532   2.03214
   A12        1.87726   0.00108   0.00646   0.00000   0.00656   1.88382
   A13        1.84267   0.00060   0.00289   0.00000   0.00314   1.84581
   A14        1.91332  -0.00362  -0.01478   0.00000  -0.01515   1.89817
   A15        1.90701  -0.00468  -0.02219   0.00000  -0.02236   1.88465
   A16        1.91444   0.00059   0.00324   0.00000   0.00282   1.91726
   A17        1.92019   0.00303   0.01361   0.00000   0.01349   1.93368
   A18        1.88096   0.00186   0.00085   0.00000   0.00093   1.88189
   A19        1.90504   0.00290   0.02227   0.00000   0.02215   1.92719
   A20        1.88630  -0.00619  -0.02849   0.00000  -0.02854   1.85775
   A21        1.96262  -0.00198  -0.00861   0.00000  -0.00915   1.95347
   A22        1.90688   0.00045   0.00053   0.00000   0.00016   1.90704
   A23        1.99509   0.01065   0.03498   0.00000   0.03498   2.03007
   A24        2.05078   0.00122   0.01703   0.00000   0.01691   2.06769
   A25        1.96568   0.00122  -0.00127   0.00000  -0.00139   1.96429
   A26        2.26417  -0.00215  -0.01406   0.00000  -0.01419   2.24998
   A27        1.93319  -0.00254  -0.00888   0.00000  -0.00888   1.92431
   A28        1.97135   0.02242   0.12825   0.00000   0.09130   2.06265
   A29        1.90181   0.00182   0.02999   0.00000  -0.01537   1.88645
   A30        1.99524   0.04784   0.20753   0.00000   0.17540   2.17064
   A31        1.92669   0.02362   0.07003   0.00000   0.07003   1.99672
    D1        3.12697   0.00116   0.00640   0.00000   0.00636   3.13332
    D2       -3.13965  -0.00045  -0.00265   0.00000  -0.00270   3.14083
    D3       -0.01024   0.00045   0.00242   0.00000   0.00247  -0.00777
    D4       -3.11693   0.00063   0.00245   0.00000   0.00251  -3.11442
    D5       -1.04404  -0.00060  -0.00324   0.00000  -0.00331  -1.04735
    D6        1.05745   0.00025   0.00180   0.00000   0.00181   1.05927
    D7       -1.00817  -0.00084  -0.00500   0.00000  -0.00499  -1.01316
    D8        1.12841  -0.00056  -0.00247   0.00000  -0.00231   1.12610
    D9       -3.11152   0.00093   0.00573   0.00000   0.00569  -3.10583
   D10       -3.09330  -0.00055  -0.00377   0.00000  -0.00380  -3.09710
   D11       -0.95672  -0.00028  -0.00124   0.00000  -0.00112  -0.95784
   D12        1.08653   0.00121   0.00697   0.00000   0.00688   1.09341
   D13        1.10694  -0.00136  -0.00812   0.00000  -0.00820   1.09874
   D14       -3.03967  -0.00108  -0.00559   0.00000  -0.00551  -3.04518
   D15       -0.99642   0.00041   0.00261   0.00000   0.00249  -0.99393
   D16       -0.94290   0.00303   0.01888   0.00000   0.01905  -0.92385
   D17        1.10992  -0.00165  -0.00725   0.00000  -0.00726   1.10266
   D18       -3.10419   0.00155   0.00606   0.00000   0.00601  -3.09818
   D19       -3.05996   0.00006   0.00400   0.00000   0.00435  -3.05560
   D20       -1.00714  -0.00462  -0.02212   0.00000  -0.02195  -1.02909
   D21        1.06193  -0.00142  -0.00881   0.00000  -0.00869   1.05325
   D22        1.12475   0.00444   0.02319   0.00000   0.02308   1.14783
   D23       -3.10562  -0.00024  -0.00293   0.00000  -0.00323  -3.10885
   D24       -1.03654   0.00296   0.01037   0.00000   0.01004  -1.02650
   D25        2.60806  -0.00081  -0.00146   0.00000  -0.00134   2.60672
   D26       -1.48176   0.00523   0.02466   0.00000   0.02465  -1.45710
   D27        0.61219  -0.00239  -0.00994   0.00000  -0.01006   0.60213
   D28       -1.53877  -0.00375  -0.02827   0.00000  -0.02824  -1.56701
   D29        2.69492  -0.00408  -0.02043   0.00000  -0.02015   2.67477
   D30        0.58866   0.00077   0.00397   0.00000   0.00365   0.59232
   D31        2.57405   0.00087   0.00551   0.00000   0.00546   2.57950
   D32       -1.63453   0.00209   0.00650   0.00000   0.00647  -1.62806
   D33        0.50615  -0.00391  -0.02183   0.00000  -0.02175   0.48440
   D34        0.16266  -0.00228  -0.01247   0.00000  -0.01262   0.15004
   D35       -3.04830   0.00151   0.00806   0.00000   0.00820  -3.04010
   D36        3.05832   0.00474   0.02575   0.00000   0.02564   3.08396
   D37        0.92237   0.03916   0.17192   0.00000   0.16301   1.08538
   D38       -1.31513  -0.04329  -0.19270   0.00000  -0.18378  -1.49891
   D39       -2.18789  -0.06185  -0.27123   0.00000  -0.29877  -2.48666
         Item               Value     Threshold  Converged?
 Maximum Force            0.144912     0.000450     NO 
 RMS     Force            0.030072     0.000300     NO 
 Maximum Displacement     0.432245     0.001800     NO 
 RMS     Displacement     0.087762     0.001200     NO 
 Predicted change in Energy=-1.513904D-01
 GradGradGradGradGradGradGradGradGradGradGradGradGradGradGradGradGradGrad

                          Input orientation:                          
 ---------------------------------------------------------------------
 Center     Atomic      Atomic             Coordinates (Angstroms)
 Number     Number       Type             X           Y           Z
 ---------------------------------------------------------------------
      1          8           0        3.641874    1.437303    0.982896
      2          7           0        3.230553    0.584483    0.333450
      3          8           0        3.796572   -0.323537   -0.116931
      4          8           0        1.918682    0.691305    0.099209
      5          6           0        1.385722   -0.349872   -0.702005
      6          6           0       -0.097116   -0.080661   -0.917815
      7          6           0       -0.957629    0.034432    0.339670
      8          8           0       -0.781266   -1.089639    1.171120
      9          7           0       -1.606774   -2.127362    0.952982
     10          8           0       -2.296293   -2.100291    0.015819
     11          8           0       -1.480012   -2.959129    1.728062
     12          8           0       -0.509114    1.132794    1.062894
     13          7           0       -1.542000    1.713721    1.723601
     14          8           0       -2.126154    1.059983    2.560851
     15          8           0       -2.077138    2.493824    0.971535
     16          8           0       -0.218639    1.114667   -1.662783
     17          7           0       -1.232895    1.160247   -2.414802
     18          1           0        1.872368   -0.361514   -1.660550
     19          1           0        1.524486   -1.301940   -0.221597
     20          1           0       -0.462701   -0.908555   -1.494896
     21          1           0       -1.982526    0.179739    0.077732
 ---------------------------------------------------------------------
                    Distance matrix (angstroms):
                    1          2          3          4          5
     1  O    0.000000
     2  N    1.148157   0.000000
     3  O    2.081852   1.160914   0.000000
     4  O    2.075285   1.336895   2.145482   0.000000
     5  C    3.335133   2.312702   2.480968   1.417759   0.000000
     6  C    4.460602   3.616831   3.982614   2.386150   1.522451
     7  C    4.851517   4.224152   4.789473   2.960146   2.593080
     8  O    5.097552   4.427084   4.816907   3.407415   2.958325
     9  N    6.344765   5.580113   5.796089   4.593762   3.854022
    10  O    6.979372   6.152636   6.348030   5.056281   4.139622
    11  O    6.790994   6.057355   6.180023   5.246899   4.574481
    12  O    4.162911   3.849395   4.695937   2.649112   2.983886
    13  N    5.243816   5.097544   6.003193   3.957310   4.325914
    14  O    5.991866   5.820801   6.645549   4.749347   4.996718
    15  O    5.815794   5.676646   6.604751   4.469518   4.783172
    16  O    4.691191   4.020319   4.536519   2.802140   2.375277
    17  N    5.948486   5.273211   5.725151   4.058644   3.474375
    18  H    3.654408   2.591450   2.467136   2.051176   1.075067
    19  H    3.665731   2.603332   2.476005   2.057021   1.075398
    20  H    5.337607   4.383166   4.514692   3.282028   2.087455
    21  H    5.833923   5.235017   5.804235   3.934664   3.497652
                    6          7          8          9         10
     6  C    0.000000
     7  C    1.528069   0.000000
     8  O    2.418625   1.409237   0.000000
     9  N    3.157203   2.338994   1.343844   0.000000
    10  O    3.128411   2.540461   2.156721   1.163806   0.000000
    11  O    4.147124   3.340946   2.072057   1.143964   2.082234
    12  O    2.359115   1.389467   2.241649   3.441737   3.839689
    13  N    3.504935   2.253168   2.956819   3.918158   4.246430
    14  O    4.185591   2.711245   2.891530   3.607514   4.061215
    15  O    3.757406   2.775097   3.815799   4.645098   4.697585
    16  O    1.413703   2.392244   3.634078   4.390888   4.179749
    17  N    2.251847   2.988368   4.257322   4.721242   4.203551
    18  H    2.123535   3.488056   3.948455   4.696084   4.817810
    19  H    2.146122   2.874336   2.702079   3.444670   3.910510
    20  H    1.073352   2.121276   2.691082   2.964204   2.657923
    21  H    2.147950   1.067773   2.061515   2.495990   2.302351
                   11         12         13         14         15
    11  O    0.000000
    12  O    4.257807   0.000000
    13  N    4.673263   1.356784   0.000000
    14  O    4.155032   2.205446   1.212269   0.000000
    15  O    5.537471   2.078327   1.208527   2.141081   0.000000
    16  O    5.448367   2.741171   3.684799   4.634726   3.506525
    17  N    5.847533   3.552321   4.186676   5.056192   3.736100
    18  H    5.428512   3.914277   5.236123   5.985738   5.538900
    19  H    3.946448   3.422482   4.720312   5.162158   5.366850
    20  H    3.953130   3.272851   4.289516   4.805341   4.501763
    21  H    3.581704   2.012412   2.292608   2.638435   2.482503
                   16         17         18         19         20
    16  O    0.000000
    17  N    1.263457   0.000000
    18  H    2.559575   3.539394   0.000000
    19  H    3.309908   4.298333   1.753856   0.000000
    20  H    2.044794   2.391520   2.404006   2.392688   0.000000
    21  H    2.648542   2.781378   4.263189   3.818914   2.442828
                   21
    21  H    0.000000
 Stoichiometry    C3H4N4O10
 Framework group  C1[X(C3H4N4O10)]
 Deg. of freedom    57
 Full point group                 C1      NOp   1
 Largest Abelian subgroup         C1      NOp   1
 Largest concise Abelian subgroup C1      NOp   1
                         Standard orientation:                         
 ---------------------------------------------------------------------
 Center     Atomic      Atomic             Coordinates (Angstroms)
 Number     Number       Type             X           Y           Z
 ---------------------------------------------------------------------
      1          8           0        3.690027   -0.451414   -1.376153
      2          7           0        3.239622    0.284066   -0.618215
      3          8           0        3.671850    1.292909   -0.239883
      4          8           0        2.055485   -0.114570   -0.142615
      5          6           0        1.477821    0.776424    0.796788
      6          6           0        0.162024    0.181416    1.278972
      7          6           0       -0.884122   -0.115571    0.205487
      8          8           0       -1.125009    1.024404   -0.587217
      9          7           0       -2.096887    1.850124   -0.163477
     10          8           0       -2.564523    1.664107    0.885884
     11          8           0       -2.310336    2.693774   -0.906007
     12          8           0       -0.359272   -1.081634   -0.644145
     13          7           0       -1.350572   -1.874728   -1.122881
     14          8           0       -2.216960   -1.363081   -1.799036
     15          8           0       -1.543220   -2.759131   -0.322097
     16          8           0        0.453735   -1.015246    1.972844
     17          7           0       -0.356856   -1.290765    2.902014
     18          1           0        2.130049    0.890815    1.643713
     19          1           0        1.307941    1.738262    0.346801
     20          1           0       -0.253558    0.903251    1.955973
     21          1           0       -1.780130   -0.487761    0.651338
 ---------------------------------------------------------------------
 Rotational constants (GHZ):           0.5682103           0.3423194           0.3074837
 Standard basis: 6-31G(d) (6D, 7F)
 There are   263 symmetry adapted cartesian basis functions of A   symmetry.
 There are   263 symmetry adapted basis functions of A   symmetry.
   263 basis functions,   492 primitive gaussians,   263 cartesian basis functions
    65 alpha electrons       65 beta electrons
       nuclear repulsion energy      1388.8313930564 Hartrees.
 NAtoms=   21 NActive=   21 NUniq=   21 SFac= 1.00D+00 NAtFMM=   60 NAOKFM=F Big=F
 Integral buffers will be    131072 words long.
 Raffenetti 1 integral format.
 Two-electron integral symmetry is turned on.
 One-electron integrals computed using PRISM.
 NBasis=   263 RedAO= T EigKep=  1.93D-03  NBF=   263
 NBsUse=   263 1.00D-06 EigRej= -1.00D+00 NBFU=   263
 Initial guess from the checkpoint file:  "C:\g16w\Scratch\Gau-14208.chk"
 B after Tr=     0.000000    0.000000    0.000000
         Rot=    0.999785    0.004048   -0.006076   -0.019431 Ang=   2.38 deg.
 ExpMin= 1.61D-01 ExpMax= 5.48D+03 ExpMxC= 8.25D+02 IAcc=3 IRadAn=         5 AccDes= 0.00D+00
 Harris functional with IExCor=  205 and IRadAn=       5 diagonalized for initial guess.
 HarFok:  IExCor=  205 AccDes= 0.00D+00 IRadAn=         5 IDoV= 1 UseB2=F ITyADJ=14
 ICtDFT=  3500011 ScaDFX=  1.000000  1.000000  1.000000  1.000000
 FoFCou: FMM=F IPFlag=           0 FMFlag=      100000 FMFlg1=           0
         NFxFlg=           0 DoJE=T BraDBF=F KetDBF=T FulRan=T
         wScrn=  0.000000 ICntrl=       500 IOpCl=  0 I1Cent=   200000004 NGrid=           0
         NMat0=    1 NMatS0=      1 NMatT0=    0 NMatD0=    1 NMtDS0=    0 NMtDT0=    0
 Petite list used in FoFCou.
 Requested convergence on RMS density matrix=1.00D-08 within 128 cycles.
 Requested convergence on MAX density matrix=1.00D-06.
 Requested convergence on             energy=1.00D-06.
 No special actions if energy rises.
 Integral accuracy reduced to 1.0D-05 until final iterations.
 Initial convergence to 1.0D-05 achieved.  Increase integral accuracy.
 SCF Done:  E(RHF) =  -1081.60797859     A.U. after   22 cycles
            NFock= 22  Conv=0.29D-08     -V/T= 2.0019
 Calling FoFJK, ICntrl=      2127 FMM=F ISym2X=0 I1Cent= 0 IOpClX= 0 NMat=1 NMatS=1 NMatT=0.
 ***** Axes restored to original set *****
 -------------------------------------------------------------------
 Center     Atomic                   Forces (Hartrees/Bohr)
 Number     Number              X              Y              Z
 -------------------------------------------------------------------
      1        8           0.021552214    0.044146648    0.032982374
      2        7          -0.032884046    0.004162827   -0.003539472
      3        8           0.022174705   -0.042305754   -0.022720415
      4        8          -0.004506239   -0.006504578   -0.006224790
      5        6          -0.008425909    0.001989374    0.001460446
[...]
 ,0.00000951,0.00051848,-0.00062108,0.00059113,-0.00099903,0.00029014,-
 0.00264417,-0.00024597,-0.00655608,0.01044730,-0.00828448,-0.02645883,
 -0.01759329,0.02836241,-0.28051676,0.01259669,-0.38075470,0.39368786,-
 0.06084312,0.45551462,-0.00020425,-0.00020596,-0.00010371,0.00067780,0
 .00037701,0.00014834,-0.00018682,-0.00009689,0.00000297,-0.00036845,-0
 .00021206,0.00001907,0.00015497,0.00039741,-0.00011228,0.00098257,-0.0
 0166917,-0.00029813,-0.00783589,0.00798291,-0.00636493,0.01244056,-0.0
 6317025,0.05217757,-0.15868128,0.04371193,-0.07929547,0.00151034,0.043
 00578,-0.08670238,0.15128077,-0.00077758,-0.00035490,-0.00041623,0.002
 66994,0.00001397,0.00078782,-0.00097220,0.00035680,-0.00018763,-0.0017
 8336,-0.00027030,-0.00051792,0.00124727,0.00011685,0.00084632,0.002321
 51,-0.00331217,-0.00060182,-0.01060618,0.01472985,-0.00084639,-0.03197
 711,-0.06823019,0.07186470,0.02425375,-0.36526986,0.29615852,0.0419994
 0,0.02527583,0.05871630,-0.02436922,0.40202284,0.00069485,0.00039848,0
 .00049218,-0.00223272,-0.00012485,-0.00092567,0.00078951,-0.00023671,0
 .00025904,0.00160196,0.00028408,0.00063835,-0.00110676,-0.00002907,-0.
 00109032,-0.00080263,0.00020599,0.00088101,0.00303256,-0.00859665,0.00
 560776,0.02359742,0.05892393,-0.01740403,-0.05972617,0.31155580,-0.525
 05568,-0.08604339,0.05843858,-0.10037805,0.11812644,-0.42585855,0.6348
 6898,-0.00100065,-0.00079803,-0.00062918,0.00379250,0.00110396,0.00190
 915,-0.00139399,0.00036095,-0.00027790,-0.00826613,0.00021523,0.001641
 26,0.00143212,-0.00005277,-0.00106912,0.01315390,0.02826751,0.01714967
 ,-0.15074565,-0.05879563,-0.00455254,0.01277528,0.00755262,-0.00283541
 ,-0.01154607,-0.00299519,-0.00109359,0.00373197,-0.00195764,0.00315923
 ,0.00196703,0.00116899,-0.00068325,0.37655081,0.00088423,0.00154925,0.
 00111193,-0.00254944,-0.00251240,-0.00216412,0.00056874,0.00067808,0.0
 0047059,0.00381991,0.00180051,0.00066905,-0.00198230,-0.00019397,0.000
 58131,-0.00187396,-0.01373969,-0.01214958,-0.08115359,-0.16899433,-0.0
 7074432,-0.02583222,-0.07988643,0.00190778,0.02683592,0.00556771,-0.00
 910130,-0.00716403,-0.00257308,-0.00078566,-0.00494573,-0.00587941,0.0
 0700063,0.09002469,0.43076717,0.00140271,0.00183221,0.00161067,-0.0038
 7126,-0.00267082,-0.00317210,0.00122934,0.00048916,0.00068823,0.006310
 91,0.00109767,0.00203755,-0.00340641,0.00032092,-0.00001676,-0.0119230
 2,-0.03377439,-0.02376041,-0.03539404,-0.06837983,-0.13457894,0.005670
 07,0.00512192,0.02251439,0.00435223,0.00704232,-0.00558987,-0.00118151
 ,-0.00321182,0.00250498,-0.00090041,-0.00307968,0.00312892,-0.10632536
 ,0.20109021,0.32706261,0.00122535,-0.00051475,-0.00033582,-0.00514816,
 0.00184764,0.00034679,0.00211577,-0.00163184,-0.00034620,0.00182551,-0
 .00035365,-0.00035404,-0.00102862,0.00175784,0.00178895,-0.00621046,-0
 .00803950,-0.00578894,0.03430029,0.05913780,0.00520845,-0.01100098,-0.
 01842613,0.01187512,0.02128680,0.00150682,-0.00584909,-0.00905857,-0.0
 0072008,-0.00089747,-0.00392196,-0.00358108,0.00396522,-0.18985194,-0.
 03246455,0.04003224,0.86061236,-0.00173291,-0.00338036,-0.00244804,0.0
 0496607,0.00592375,0.00449651,-0.00103792,-0.00175751,-0.00115638,-0.0
 0476139,-0.00197462,-0.00150198,0.00210142,0.00111075,0.00240663,-0.00
 399083,-0.00183499,-0.00522653,0.04349919,-0.02251736,-0.03994157,0.00
 028884,0.00634148,0.00474312,-0.00343807,-0.01432811,0.00209216,0.0003
 1828,0.00315788,-0.00056184,0.00053377,0.00380025,-0.00223226,-0.03819
 116,-0.14705761,-0.02005781,0.38440957,1.06603652,-0.00219790,-0.00240
 336,-0.00210855,0.00746299,0.00353307,0.00432517,-0.00233279,-0.000212
 33,-0.00084237,-0.00600964,-0.00128333,-0.00102766,0.00262991,-0.00070
 127,0.00008895,0.00082103,-0.00181191,-0.00044822,0.01405013,-0.046731
 75,-0.03765301,0.00539387,0.01910444,-0.00551273,-0.01197268,-0.009946
 17,0.00976266,0.00378744,0.00338261,-0.00173606,0.00216291,0.00500314,
 -0.00588969,0.03283862,-0.03021903,-0.12807295,-0.04583163,0.31402660,
 0.60439478,-0.00051540,0.00046269,0.00023845,0.00255909,-0.00114593,0.
 00001302,-0.00124920,0.00110539,0.00023056,-0.00136145,0.00033802,0.00
 025997,0.00014311,-0.00144423,-0.00126553,0.00218705,0.00140286,0.0004
 1439,-0.00965670,-0.02266150,-0.00536147,0.00335621,0.00845432,-0.0027
 8142,-0.01047611,-0.00073440,0.00105008,0.00482277,-0.00044562,0.00056
 757,0.00181462,0.00120289,-0.00113829,-0.07210535,-0.01050362,0.058816
 84,-0.50798555,-0.23149177,0.07245453,0.61528805,0.00030048,0.00109171
 ,0.00075293,-0.00036628,-0.00200931,-0.00114935,-0.00020317,0.00093574
 ,0.00040527,0.00068986,0.00067918,0.00056221,-0.00043527,-0.00102941,-
 0.00167410,0.00219604,0.00027459,0.00239305,-0.00439964,-0.01039020,-0
 .00149240,0.00410502,-0.00067755,-0.00620698,-0.00237766,0.00557558,0.
 00032147,0.00214482,-0.00156995,0.00003330,0.00055042,-0.00051251,-0.0
 0025387,-0.00715398,0.03644100,0.00670877,-0.24910420,-0.30695605,0.01
 723169,0.35407707,0.36197863,0.00064173,0.00056983,0.00050454,-0.00221
 363,-0.00076319,-0.00111426,0.00077385,-0.00007031,0.00022303,0.001719
 77,0.00024856,0.00028103,-0.00054241,0.00033938,-0.00079347,0.00111986
 ,-0.00015437,0.00197729,0.00300686,0.00851925,-0.00410896,-0.00132442,
 -0.00320970,0.00237894,0.00208560,0.00262402,-0.00483081,-0.00037974,-
 0.00111134,0.00093785,-0.00046370,-0.00161773,0.00249372,0.06163536,0.
 00861868,-0.00142068,0.05706875,0.00615662,-0.15228260,-0.09389315,0.0
 1429846,0.11852214,-0.00015098,0.00047682,0.00036794,0.00079404,-0.001
 07932,-0.00057745,-0.00044654,0.00059836,0.00020901,-0.00007728,0.0002
 9539,0.00024797,-0.00005380,-0.00053500,-0.00047327,0.00167072,0.00201
 057,0.00098748,-0.00674027,-0.00979916,0.00360715,0.00200474,0.0025180
 6,-0.00282418,-0.00411801,0.00067634,0.00065894,0.00195238,-0.00017823
 ,0.00022087,0.00073743,0.00043392,-0.00046998,0.02436843,0.05028151,0.
 03940935,-0.18906090,-0.14925052,-0.07096403,-0.02541861,-0.10299860,-
 0.03449686,0.19488598,0.00095152,0.00182956,0.00131402,-0.00250111,-0.
 00303648,-0.00230720,0.00044426,0.00101520,0.00064705,0.00242871,0.001
 12600,0.00097550,-0.00161130,-0.00076101,-0.00146260,-0.00171465,-0.00
 426308,0.00072479,0.00441247,0.01213882,-0.00134991,-0.00000081,-0.003
 35830,0.00035418,0.00007269,0.00616108,-0.00270070,0.00087660,-0.00185
 263,0.00078090,-0.00004760,-0.00189123,0.00165411,0.01734217,-0.045638
 52,-0.06682191,-0.12548949,-0.58711408,-0.27331481,-0.10263625,-0.0854
 4534,-0.03317721,0.20525830,0.71056922,0.00085050,0.00122383,0.0010431
 0,-0.00248413,-0.00191547,-0.00187768,0.00061620,0.00049740,0.00045650
 ,0.00210522,0.00071569,0.00080269,-0.00131124,-0.00029542,-0.00081192,
 -0.00228922,-0.00343799,0.00003953,0.01066571,0.01093341,0.00237875,-0
 .00154468,-0.00645295,0.00143242,0.00301950,0.00477360,-0.00294539,-0.
 00046571,-0.00133528,0.00058603,-0.00053983,-0.00181955,0.00190564,0.0
 1368918,-0.08564898,-0.04857039,-0.05169030,-0.25952952,-0.28626286,-0
 .03442980,-0.03214406,0.03973779,0.06220596,0.37432181,0.29277423,-0.0
 0121714,-0.00149236,-0.00119208,0.00438514,0.00299164,0.00290615,-0.00
 159693,-0.00106718,-0.00056749,-0.00021030,0.00031612,-0.00120842,-0.0
 0421190,0.04417453,-0.02947616,-0.10257202,-0.04642058,0.01597729,0.00
 586688,-0.01857998,0.00695707,-0.00241802,-0.00012842,0.00492019,-0.00
 117899,-0.00023592,0.00003177,0.00086695,0.00050265,0.00068154,0.00032
 950,-0.00069830,0.00046361,0.00248416,-0.00045024,-0.00120751,-0.00303
 825,0.00120951,0.00160832,0.00156670,0.00006653,-0.00062251,0.00058162
 ,-0.00063338,-0.00056989,0.58357145,0.00024347,0.00032154,0.00029562,-
 0.00068749,-0.00025058,-0.00059235,-0.00007543,0.00024860,0.00013059,0
 .00032885,0.00167982,-0.00052315,0.00379290,-0.00803265,0.00346021,-0.
 05369291,-0.18164325,0.04635314,-0.00137738,-0.01225295,0.01033889,-0.
 00163890,0.00064019,0.00234207,0.00211354,0.00165709,-0.00084513,-0.00
 057902,-0.00011566,0.00008075,-0.00033859,-0.00064851,0.00040122,-0.00
 008796,0.00172814,-0.00166794,-0.00099970,-0.00021686,0.00023156,0.000
 56414,0.00049074,-0.00001169,0.00010248,0.00052307,0.00029091,0.034725
 06,0.29417567,-0.00057051,-0.00030898,-0.00030978,0.00278093,0.0006992
 2,0.00079246,-0.00109145,0.00007335,0.00005539,-0.00125163,0.00119409,
 -0.00091268,-0.00501114,0.01375788,-0.01021023,0.01485856,0.05050754,-
 0.07805130,-0.01137177,0.03039149,-0.02355280,0.00876272,0.00505768,-0
 .00686815,-0.00640702,-0.00365638,-0.00244814,0.00209801,0.00052450,0.
 00123400,0.00142597,0.00181838,-0.00040467,0.00151566,0.00165597,-0.00
 200503,-0.00283055,0.00008445,0.00208462,0.00150444,0.00019911,-0.0001
 5655,0.00044154,0.00004541,-0.00048775,0.24862266,-0.13966115,0.266028
 74,0.00066432,0.00035756,0.00041358,-0.00281360,-0.00034936,-0.0010654
 0,0.00090961,-0.00029130,0.00010790,0.00133185,0.00014039,0.00066356,0
 .00122473,0.00053112,-0.00237007,-0.01613695,0.04630618,-0.04071159,0.
 00110649,-0.00022455,0.00175348,-0.00119625,-0.00207862,0.00180257,0.0
 0277845,0.00196936,0.00002593,-0.00100712,-0.00057915,-0.00042573,-0.0
 0060642,-0.00063195,0.00024689,-0.00154829,0.00006703,0.00200419,0.003
 08926,-0.00144778,-0.00240004,-0.00150979,-0.00002486,0.00059140,-0.00
 049221,0.00070520,0.00075965,-0.47714613,0.01329029,-0.25490171,0.4885
 4507,0.00017283,0.00036317,0.00015252,0.00037595,-0.00050256,0.0000652
 0,-0.00002398,0.00044409,0.00010286,0.00028818,0.00033717,-0.00027561,
 -0.00041014,-0.00716240,0.00717882,0.05352273,-0.00092586,0.02329445,0
 .00120587,0.00118573,0.00111567,0.00066612,0.00062144,-0.00102001,-0.0
 0079943,-0.00032120,-0.00068143,0.00028069,0.00008123,0.00045859,0.000
 17744,0.00004997,0.00017764,0.00006438,0.00036302,0.00023545,0.0000491
 4,0.00008769,0.00009716,0.00001085,0.00005082,-0.00005330,-0.00000946,
 0.00005730,0.00003741,-0.00660138,-0.06089994,0.03878851,-0.05215801,0
 .06140651,0.00032973,0.00001011,0.00016356,-0.00186633,0.00015015,-0.0
 0050595,0.00054404,-0.00048370,-0.00005881,0.00113343,-0.00016001,0.00
 074008,0.00121115,0.00488803,-0.00355325,-0.03968550,0.02290938,-0.041
 81755,0.00369661,0.00324526,-0.00196264,-0.00216516,-0.00063547,0.0011
 4326,0.00173901,0.00008262,0.00085333,-0.00071443,-0.00005121,-0.00045
 152,-0.00037626,0.00000141,-0.00029493,-0.00180833,-0.00075462,0.00069
 645,0.00270256,0.00024793,-0.00085360,-0.00142784,-0.00047561,0.000047
 68,-0.00048217,-0.00014330,0.00017454,-0.24488474,0.04451898,-0.153391
 44,0.28570251,-0.06827035,0.19474673,-0.00107520,-0.00089330,0.0001635
 7,0.00529145,-0.00017474,-0.00089897,-0.00301132,-0.00000873,-0.001693
 57,0.00615726,-0.00593152,-0.01935263,-0.14213299,0.01037465,0.1378799
 4,-0.02106176,0.00168229,0.03400317,-0.00605983,0.00113229,-0.00525578
 ,0.00039708,-0.00050639,-0.00020321,0.00040220,0.00085581,-0.00045979,
 -0.00007172,-0.00034663,0.00011511,-0.00007653,-0.00036223,0.00032516,
 0.00004261,0.00026434,0.00014845,-0.00000605,-0.00086891,-0.00054894,0
 .00003579,0.00035895,0.00033856,0.00003699,0.00050109,0.00033856,0.004
 01033,-0.00110476,0.00087584,-0.00089874,-0.00004148,-0.00069974,0.152
 31518,-0.00135207,-0.00075573,0.00027971,0.00642706,0.00055544,-0.0000
 8814,-0.00199389,0.00089670,0.00048340,0.00977197,-0.01428028,-0.04057
 323,0.00372681,-0.06297717,-0.00398871,0.00489501,0.00001192,-0.004863
 53,0.00112448,-0.00028381,0.00069097,-0.00085911,0.00017110,0.00020788
 ,0.00064660,0.00071348,-0.00014266,-0.00031557,-0.00017251,-0.00013378
 ,-0.00010800,-0.00016541,0.00008561,-0.00023476,0.00021536,0.00036910,
 -0.00000107,-0.00030155,-0.00015156,0.00008736,0.00014767,0.00000669,0
 .00004236,0.00020586,0.00014417,-0.00084331,0.00029931,-0.00079337,0.0
 0013525,0.00001500,0.00002687,-0.00443730,0.07000928,-0.00141843,0.000
 96562,0.00034391,0.00809586,-0.00403348,-0.00140582,-0.00184981,0.0029
 4058,0.00230570,-0.00052269,-0.01397547,-0.01917196,0.13237447,-0.0101
 8133,-0.28586525,-0.00605676,0.00152055,0.01002150,-0.00270739,0.00146
 334,-0.00135782,0.00044562,-0.00015730,-0.00006429,-0.00016568,0.00005
 700,-0.00022630,0.00014419,-0.00004914,0.00017096,0.00003240,-0.000103
 40,0.00013698,-0.00011228,-0.00006754,0.00023665,-0.00010170,-0.000242
 94,-0.00008680,0.00009231,0.00015108,0.00010524,0.00003329,0.00020764,
 0.00014219,-0.00012281,-0.00003822,0.00063001,0.00045337,-0.00031754,0
 .00042275,-0.14056282,0.02252703,0.30626681,-0.00092538,0.00030041,-0.
 00075594,0.00548800,-0.00341087,0.00156639,-0.00257913,0.00073777,0.00
 014140,-0.00124474,-0.01801165,0.00330601,-0.07138790,0.03951243,-0.02
 365532,0.00208526,0.03101672,-0.01909976,0.00094528,0.00158366,-0.0004
 6207,-0.00022023,-0.00041543,0.00063059,-0.00139710,-0.00115663,0.0004
 2929,0.00059658,0.00027538,0.00025763,0.00018805,0.00020391,-0.0001217
 4,-0.00000449,-0.00030158,0.00014382,-0.00001886,0.00035995,0.00010729
 ,-0.00001737,-0.00017693,-0.00002314,-0.00001818,-0.00013648,-0.000072
 80,-0.00874357,-0.00066454,-0.00164717,-0.00068959,0.00210177,-0.00145
 660,0.00518056,-0.01630843,0.01132244,0.07164135,-0.00144614,0.0009051
 5,-0.00040106,0.00804869,-0.00398667,0.00136717,-0.00149218,0.00365621
 ,0.00037547,-0.00557120,-0.03715888,0.00355846,0.03416920,-0.26150297,
 0.13720458,0.00235653,-0.00202327,0.00247383,0.00039476,-0.00120231,0.
 00051638,-0.00193084,-0.00018464,0.00069150,0.00051348,0.00139107,-0.0
 0030275,-0.00039413,-0.00029967,-0.00015130,-0.00004672,-0.00038996,0.
 00021779,0.00000563,0.00022717,0.00002643,-0.00003865,-0.00039604,-0.0
 0017369,0.00009835,0.00016780,0.00001811,0.00004917,0.00019501,0.00010
 702,-0.00075374,0.00206746,-0.00026336,0.00010303,-0.00009731,0.000079
 78,-0.00018116,0.00543686,-0.00052213,-0.03462259,0.29250060,-0.000495
 62,-0.00050515,-0.00147448,0.00292266,0.00082337,0.00276539,-0.0019462
 5,-0.00094621,-0.00046925,-0.00063130,-0.03049334,0.01324215,-0.024373
 91,0.14678162,-0.16296852,0.00175136,0.00340011,-0.00215492,-0.0006837
 7,-0.00011282,-0.00044276,0.00152624,-0.00014953,-0.00052938,0.0003023
 7,-0.00006498,0.00017643,-0.00008706,-0.00002029,-0.00007627,-0.000098
 79,0.00001170,-0.00004913,0.00000299,0.00003621,0.00009331,-0.00004332
 ,-0.00017332,-0.00010983,0.00006493,0.00007219,0.00002647,0.00002577,0
 .00009581,0.00005922,-0.00228141,0.00009919,0.00013803,0.00068591,0.00
 006177,0.00048344,-0.00623179,0.02539900,-0.01409635,0.02979676,-0.144
 54247,0.16548142,-0.00167278,-0.00067374,-0.00070733,0.00302593,-0.002
 33021,-0.00078004,-0.00075299,0.00087155,0.00034132,-0.01033463,0.0019
 2792,-0.00172515,-0.00579770,-0.02910691,-0.01894727,-0.09478113,-0.07
 659425,-0.05176293,0.00863026,0.01929758,0.01459264,-0.00006534,-0.000
 09922,-0.00166213,0.00131316,-0.00014796,0.00119139,-0.00052472,-0.000
 12310,-0.00086833,-0.00033851,0.00028261,-0.00040651,-0.00480916,0.001
 74947,0.00600884,0.00281420,0.00047684,-0.00039589,-0.00077554,-0.0003
 6673,0.00010474,-0.00065659,0.00097990,0.00093739,-0.00095895,0.005603
 13,0.00184359,0.00326580,0.00101349,-0.00017157,0.00114905,-0.00049069
 ,0.00085906,0.00104522,0.00068357,-0.00018252,0.09916518,0.00067195,0.
 00027568,0.00033301,-0.00098232,0.00093055,0.00012172,0.00026280,-0.00
 026712,-0.00008138,0.00346908,0.00099373,0.00087785,-0.00041166,0.0055
 0620,0.00228497,-0.06660586,-0.23570852,-0.12608745,-0.00081188,-0.003
 18980,-0.00382121,0.00013335,0.00139567,0.00081600,0.00039773,0.000511
 54,-0.00047092,-0.00012939,-0.00012193,0.00005116,-0.00001562,-0.00006
 080,0.00009104,0.00037539,0.00061674,-0.00003588,-0.00025149,0.0001144
 8,0.00022911,0.00006824,0.00004233,-0.00000629,-0.00000571,0.00005754,
 0.00001011,-0.00599858,-0.04013957,-0.00079357,-0.00506227,0.00560617,
 -0.00491073,-0.00041596,0.00021782,-0.00011231,-0.00078583,0.00064492,
 0.00013871,0.07626577,0.26228878,-0.00025787,-0.00006660,-0.00017991,0
 .00069694,-0.00047490,0.00033587,-0.00027271,0.00024910,0.00004043,-0.
 00203017,0.00059603,0.00068302,-0.00016850,-0.00628088,-0.00353395,-0.
 05183715,-0.13496319,-0.15527293,-0.01074225,-0.02416357,-0.01412567,-
 0.00036397,0.00082314,0.00202947,-0.00044619,0.00027581,-0.00224164,0.
 00028011,0.00024109,0.00105536,0.00028566,-0.00024073,0.00047944,0.006
 23020,-0.00132015,-0.00552578,-0.00321047,-0.00034299,0.00101944,0.001
 06927,0.00051354,-0.00024457,0.00069351,-0.00099547,-0.00103204,0.0028
 6502,0.03497202,0.00702663,0.00530181,-0.00104180,0.00315952,-0.000045
 16,0.00076555,0.00093533,-0.00007714,-0.00024119,-0.00018334,0.0521679
 9,0.13148351,0.16436722,0.00003419,-0.00005015,-0.00001713,-0.00016213
 ,0.00019138,0.00007983,0.00004546,-0.00010368,-0.00007009,0.00039163,-
 0.00007345,0.00004416,-0.00006995,0.00046017,0.00273913,-0.01887626,0.
 00022082,-0.00499696,-0.35798533,0.01162079,-0.10366708,0.00180877,0.0
 0325572,-0.00135622,-0.00129063,-0.00008441,-0.00155754,-0.00236632,-0
 .00703576,0.00346911,0.00013646,-0.00002500,-0.00011219,0.00097291,-0.
 00527459,-0.00131947,-0.00093923,-0.00195218,-0.00066349,-0.00070229,0
 .00311814,0.00487307,0.00020106,0.00079816,0.00020971,-0.00037054,0.00
 048281,0.00035301,0.00112951,0.00011445,-0.00132035,-0.00062436,0.0000
 8731,-0.00023264,0.00007625,0.00005493,-0.00002324,0.00105925,-0.00016
 773,-0.00013893,0.37753155,0.00007735,0.00018110,0.00013572,-0.0000665
 2,-0.00028356,-0.00013446,-0.00002975,0.00017054,0.00006592,0.00024830
 ,0.00010104,0.00013097,-0.00008254,0.00017302,-0.00054258,0.00441041,0
 .00199906,-0.00045276,0.00822739,-0.06106442,0.00351636,0.03193639,-0.
 01151891,0.02023324,0.00745130,0.00310653,0.00349093,-0.00596395,-0.00
 472440,-0.00119907,-0.00151087,0.00061888,-0.00210293,-0.03621442,-0.0
 1347871,-0.02463407,-0.00709263,0.00126233,0.00410983,0.00319112,0.000
 71454,-0.00122446,0.00111271,-0.00051800,-0.00047616,-0.00008265,0.000
 36833,0.00067922,-0.00075756,-0.00076005,-0.00027553,0.00010370,0.0000
 4065,-0.00003202,-0.00010105,0.00004945,0.00008845,0.00078100,0.000285
 60,0.00021167,-0.00563775,0.08327698,0.00030971,0.00041294,0.00030621,
 -0.00065598,-0.00059112,-0.00056122,0.00025856,0.00023735,0.00029068,0
 .00012393,0.00007520,0.00020858,0.00137855,0.00038791,-0.00677259,0.03
 023532,-0.00192383,0.01302303,-0.08493074,0.00220891,-0.09588462,-0.02
 484249,0.01479369,-0.01448264,-0.00704430,-0.00195605,-0.00136841,0.00
 252019,-0.00132879,0.00207517,0.00087457,0.00008133,0.00060016,-0.0203
 8435,-0.01018707,-0.00786085,-0.00570856,-0.00083883,0.00121131,0.0035
 2114,-0.00024673,-0.00228382,0.00117916,0.00115190,0.00045539,-0.00290
 060,-0.00017552,0.00080864,0.00136180,-0.00010601,0.00025835,0.0017640
 5,-0.00025099,0.00055657,-0.00032994,-0.00003856,0.00008835,-0.0004373
 0,-0.00011743,0.00120810,0.10370728,-0.00158829,0.10812361||-0.0000062
 4,-0.00001770,-0.00000187,0.00001536,-0.00000509,-0.00000585,0.0000103
 1,0.00001335,0.00001633,-0.00001003,0.00000301,-0.00002050,-0.00000121
 ,0.00000031,0.00003123,-0.00000006,0.00000792,-0.00001128,-0.00000573,
 0.00000616,0.00000292,-0.00002718,-0.00001737,0.00000814,0.00004042,-0
 .00001666,-0.00004820,-0.00000877,0.00001260,0.00001524,-0.00000785,0.
 00000524,0.00002328,0.00000509,0.00001915,0.00000447,0.00000177,-0.000
 00555,-0.00001742,-0.00001135,-0.00000302,0.00001150,0.00000850,-0.000
 00077,-0.00000237,0.00002834,-0.00001584,0.00003135,-0.00003960,0.0000
 0985,-0.00002869,-0.00000377,0.00000144,-0.00000421,0.00000798,0.00000
 042,-0.00000538,0.00000023,0.00000580,0.00000207,0.00000378,-0.0000032
 4,-0.00000077|||@
 The archive entry for this job was punched.


 ON A CLEAR DISK YOU CAN SEEK FOREVER.
 Job cpu time:       0 days  0 hours  1 minutes  2.0 seconds.
 Elapsed time:       0 days  0 hours  1 minutes  1.0 seconds.
 File lengths (MBytes):  RWF=    187 Int=      0 D2E=      0 Chk=      7 Scr=      1
 Normal termination of Gaussian 16 at Tue Jun 11 18:07:55 2024.
