 Entering Link 1 = C:\G16W\l1.exe PID=     16080.
  
 Copyright (c) 1988-2019, Gaussian, Inc.  All Rights Reserved.
  
 This is part of the Gaussian(R) 16 program.  It is based on
 the Gaussian(R) 09 system (copyright 2009, Gaussian, Inc.),
 the Gaussian(R) 03 system (copyright 2003, Gaussian, Inc.),
 the Gaussian(R) 98 system (copyright 1998, Gaussian, Inc.),
 the Gaussian(R) 94 system (copyright 1995, Gaussian, Inc.),
 the Gaussian 92(TM) system (copyright 1992, Gaussian, Inc.),
 the Gaussian 90(TM) system (copyright 1990, Gaussian, Inc.),
 the Gaussian 88(TM) system (copyright 1988, Gaussian, Inc.),
 the Gaussian 86(TM) system (copyright 1986, Carnegie Mellon
 University), and the Gaussian 82(TM) system (copyright 1983,
 Carnegie Mellon University). Gaussian is a federally registered
 trademark of Gaussian, Inc.
  
 This software contains proprietary and confidential information,
 including trade secrets, belonging to Gaussian, Inc.
  
 This software is provided under written license and may be
 used, copied, transmitted, or stored only in accord with that
 written license.
  
 The following legend is applicable only to US Government
 contracts under FAR:
  
                    RESTRICTED RIGHTS LEGEND
  
 Use, reproduction and disclosure by the US Government is
 subject to restrictions as set forth in subparagraphs (a)
 and (c) of the Commercial Computer Software - Restricted
 Rights clause in FAR 52.227-19.
  
 Gaussian, Inc.
 340 Quinnipiac St., Bldg. 40, Wallingford CT 06492
  
  
 ---------------------------------------------------------------
 Warning -- This program may not be used in any manner that
 competes with the business of Gaussian, Inc. or will provide
 assistance to any competitor of Gaussian, Inc.  The licensee
 of this program is prohibited from giving any competitor of
 Gaussian, Inc. access to this program.  By using this program,
 the user acknowledges that Gaussian, Inc. is engaged in the
 business of creating and licensing software in the field of
 computational chemistry and represents and warrants to the
 licensee that it is not a competitor of Gaussian, Inc. and that
 it will not use this program in any manner prohibited above.
 ---------------------------------------------------------------
  

 Cite this work as:
 Gaussian 16, Revision C.01,
 M. J. Frisch, G. W. Trucks, H. B. Schlegel, G. E. Scuseria, 
 M. A. Robb, J. R. Cheeseman, G. Scalmani, V. Barone, 
 G. A. Petersson, H. Nakatsuji, X. Li, M. Caricato, A. V. Marenich, 
 J. Bloino, B. G. Janesko, R. Gomperts, B. Mennucci, H. P. Hratchian, 
 J. V. Ortiz, A. F. Izmaylov, J. L. Sonnenberg, D. Williams-Young, 
 F. Ding, F. Lipparini, F. Egidi, J. Goings, B. Peng, A. Petrone, 
 T. Henderson, D. Ranasinghe, V. G. Zakrzewski, J. Gao, N. Rega, 
 G. Zheng, W. Liang, M. Hada, M. Ehara, K. Toyota, R. Fukuda, 
 J. Hasegawa, M. Ishida, T. Nakajima, Y. Honda, O. Kitao, H. Nakai, 
 T. Vreven, K. Throssell, J. A. Montgomery, Jr., J. E. Peralta, 
 F. Ogliaro, M. J. Bearpark, J. J. Heyd, E. N. Brothers, K. N. Kudin, 
 V. N. Staroverov, T. A. Keith, R. Kobayashi, J. Normand, 
 K. Raghavachari, A. P. Rendell, J. C. Burant, S. S. Iyengar, 
 J. Tomasi, M. Cossi, J. M. Millam, M. Klene, C. Adamo, R. Cammi, 
 J. W. Ochterski, R. L. Martin, K. Morokuma, O. Farkas, 
 J. B. Foresman, and D. J. Fox, Gaussian, Inc., Wallingford CT, 2019.
 
 ******************************************
 Gaussian 16:  EM64W-G16RevC.01 30-May-2019
                11-Jun-2024 
 ******************************************
 %nprocshared=24
 Will use up to   24 processors via shared memory.
 %mem=120GB
 ----------------------
 # HF/6-31G(d) Opt Freq
 ----------------------
 1/18=20,19=15,38=1/1,3;
 2/9=110,12=2,17=6,18=5,40=1/2;
 3/5=1,6=6,7=1,11=9,25=1,30=1,71=1/1,2,3;
 4//1;
 5/5=2,38=5/2;
 6/7=2,8=2,9=2,10=2,28=1/1;
 7//1,2,3,16;
 1/18=20,19=15/3(2);
 2/9=110/2;
 99//99;
 2/9=110/2;
 3/5=1,6=6,7=1,11=9,25=1,30=1,71=1/1,2,3;
 4/5=5,16=3,69=1/1;
 5/5=2,38=5/2;
 7//1,2,3,16;
 1/18=20,19=15/3(-5);
 2/9=110/2;
 6/7=2,8=2,9=2,10=2,19=2,28=1/1;
 99/9=1/99;
 ----------------------------------------------------------------------
 O=[N+1]([O-1])OC(CC(O[N+1]([O-1])=O)O[N+1]([O-1])=O)O[N+1]([O-1])=O ge
 ometry optimization
 ----------------------------------------------------------------------
 Symbolic Z-matrix:
 Charge =  0 Multiplicity = 1
 O                    -2.24748   2.00907   0.87626 
 N                    -3.02792   1.41831   0.12937 
 O                    -4.16709   1.71414  -0.21901 
 O                    -2.55248   0.24385  -0.49587 
 C                    -1.26564  -0.16063  -0.02606 
 C                    -0.20047   0.53769  -0.89067 
 C                     1.25663   0.23415  -0.49227 
 O                     2.0373    0.78996  -1.56407 
 N                     3.3864    0.37663  -1.52374 
 O                     4.04751   0.82334  -2.45655 
 O                     3.71736  -0.35841  -0.59401 
 O                     1.5573    0.91428   0.72339 
 N                     1.64504   0.06188   1.84488 
 O                     2.12811   0.61408   2.82777 
 O                     1.15683  -1.06152   1.7225 
 O                    -1.0851   -1.5645   -0.24542 
 N                    -1.81815  -2.35458   0.66977 
 O                    -1.6658   -3.55823   0.48174 
 O                    -2.50476  -1.75819   1.49897 
 H                    -1.09824   0.06941   1.03355 
 H                    -0.35674   1.62382  -0.87832 
 H                    -0.3488    0.23913  -1.9383 
 H                     1.40617  -0.85369  -0.48392 
 

 GradGradGradGradGradGradGradGradGradGradGradGradGradGradGradGradGradGrad
 Berny optimization.
 Initialization pass.
                           ----------------------------
                           !    Initial Parameters    !
                           ! (Angstroms and Degrees)  !
 --------------------------                            --------------------------
 ! Name  Definition              Value          Derivative Info.                !
 --------------------------------------------------------------------------------
 ! R1    R(1,2)                  1.2312         estimate D2E/DX2                !
 ! R2    R(2,3)                  1.2274         estimate D2E/DX2                !
 ! R3    R(2,4)                  1.4129         estimate D2E/DX2                !
 ! R4    R(4,5)                  1.4284         estimate D2E/DX2                !
 ! R5    R(5,6)                  1.5394         estimate D2E/DX2                !
 ! R6    R(5,16)                 1.4323         estimate D2E/DX2                !
 ! R7    R(5,20)                 1.0971         estimate D2E/DX2                !
 ! R8    R(6,7)                  1.5408         estimate D2E/DX2                !
 ! R9    R(6,21)                 1.0974         estimate D2E/DX2                !
 ! R10   R(6,22)                 1.0994         estimate D2E/DX2                !
 ! R11   R(7,8)                  1.4378         estimate D2E/DX2                !
 ! R12   R(7,12)                 1.4251         estimate D2E/DX2                !
 ! R13   R(7,23)                 1.0981         estimate D2E/DX2                !
 ! R14   R(8,9)                  1.4116         estimate D2E/DX2                !
 ! R15   R(9,10)                 1.2275         estimate D2E/DX2                !
 ! R16   R(9,11)                 1.2305         estimate D2E/DX2                !
 ! R17   R(12,13)                1.4114         estimate D2E/DX2                !
 ! R18   R(13,14)                1.2265         estimate D2E/DX2                !
 ! R19   R(13,15)                1.231          estimate D2E/DX2                !
 ! R20   R(16,17)                1.4139         estimate D2E/DX2                !
 ! R21   R(17,18)                1.2277         estimate D2E/DX2                !
 ! R22   R(17,19)                1.2307         estimate D2E/DX2                !
 ! A1    A(1,2,3)              130.1526         estimate D2E/DX2                !
 ! A2    A(1,2,4)              116.9998         estimate D2E/DX2                !
 ! A3    A(3,2,4)              112.77           estimate D2E/DX2                !
 ! A4    A(2,4,5)              113.1402         estimate D2E/DX2                !
 ! A5    A(4,5,6)              108.0703         estimate D2E/DX2                !
 ! A6    A(4,5,16)             109.921          estimate D2E/DX2                !
 ! A7    A(4,5,20)             113.3122         estimate D2E/DX2                !
 ! A8    A(6,5,16)             105.7467         estimate D2E/DX2                !
 ! A9    A(6,5,20)             109.9836         estimate D2E/DX2                !
 ! A10   A(16,5,20)            109.5232         estimate D2E/DX2                !
 ! A11   A(5,6,7)              114.8195         estimate D2E/DX2                !
 ! A12   A(5,6,21)             110.1282         estimate D2E/DX2                !
 ! A13   A(5,6,22)             108.5817         estimate D2E/DX2                !
 ! A14   A(7,6,21)             109.0718         estimate D2E/DX2                !
 ! A15   A(7,6,22)             108.6922         estimate D2E/DX2                !
 ! A16   A(21,6,22)            105.0874         estimate D2E/DX2                !
 ! A17   A(6,7,8)              104.1564         estimate D2E/DX2                !
 ! A18   A(6,7,12)             109.0309         estimate D2E/DX2                !
 ! A19   A(6,7,23)             109.0214         estimate D2E/DX2                !
 ! A20   A(8,7,12)             109.6857         estimate D2E/DX2                !
 ! A21   A(8,7,23)             108.3426         estimate D2E/DX2                !
 ! A22   A(12,7,23)            115.95           estimate D2E/DX2                !
 ! A23   A(7,8,9)              112.6095         estimate D2E/DX2                !
 ! A24   A(8,9,10)             112.7355         estimate D2E/DX2                !
 ! A25   A(8,9,11)             116.9715         estimate D2E/DX2                !
 ! A26   A(10,9,11)            130.2923         estimate D2E/DX2                !
 ! A27   A(7,12,13)            113.7475         estimate D2E/DX2                !
 ! A28   A(12,13,14)           112.9132         estimate D2E/DX2                !
 ! A29   A(12,13,15)           116.5835         estimate D2E/DX2                !
 ! A30   A(14,13,15)           130.2963         estimate D2E/DX2                !
 ! A31   A(5,16,17)            112.5327         estimate D2E/DX2                !
 ! A32   A(16,17,18)           112.6044         estimate D2E/DX2                !
 ! A33   A(16,17,19)           117.0364         estimate D2E/DX2                !
 ! A34   A(18,17,19)           130.3525         estimate D2E/DX2                !
 ! D1    D(1,2,3,4)            176.6451         estimate D2E/DX2                !
 ! D2    D(1,2,4,5)              7.0554         estimate D2E/DX2                !
 ! D3    D(3,2,4,5)           -175.8221         estimate D2E/DX2                !
 ! D4    D(2,4,5,6)            -88.8465         estimate D2E/DX2                !
 ! D5    D(2,4,5,16)           156.2003         estimate D2E/DX2                !
 ! D6    D(2,4,5,20)            33.2967         estimate D2E/DX2                !
 ! D7    D(4,5,6,7)            178.5975         estimate D2E/DX2                !
 ! D8    D(4,5,6,21)            55.0297         estimate D2E/DX2                !
 ! D9    D(4,5,6,22)           -59.5325         estimate D2E/DX2                !
 ! D10   D(16,5,6,7)           -63.7326         estimate D2E/DX2                !
 ! D11   D(16,5,6,21)          172.6996         estimate D2E/DX2                !
 ! D12   D(16,5,6,22)           58.1373         estimate D2E/DX2                !
 ! D13   D(20,5,6,7)            54.4316         estimate D2E/DX2                !
 ! D14   D(20,5,6,21)          -69.1362         estimate D2E/DX2                !
 ! D15   D(20,5,6,22)          176.3015         estimate D2E/DX2                !
 ! D16   D(4,5,16,17)          -74.8796         estimate D2E/DX2                !
 ! D17   D(6,5,16,17)          168.6985         estimate D2E/DX2                !
 ! D18   D(20,5,16,17)          50.2275         estimate D2E/DX2                !
 ! D19   D(5,6,7,8)            170.1515         estimate D2E/DX2                !
 ! D20   D(5,6,7,12)           -72.8157         estimate D2E/DX2                !
 ! D21   D(5,6,7,23)            54.6679         estimate D2E/DX2                !
 ! D22   D(21,6,7,8)           -65.7197         estimate D2E/DX2                !
 ! D23   D(21,6,7,12)           51.313          estimate D2E/DX2                !
 ! D24   D(21,6,7,23)          178.7966         estimate D2E/DX2                !
 ! D25   D(22,6,7,8)            48.3416         estimate D2E/DX2                !
 ! D26   D(22,6,7,12)          165.3744         estimate D2E/DX2                !
 ! D27   D(22,6,7,23)          -67.142          estimate D2E/DX2                !
 ! D28   D(6,7,8,9)           -167.7967         estimate D2E/DX2                !
 ! D29   D(12,7,8,9)            75.626          estimate D2E/DX2                !
 ! D30   D(23,7,8,9)           -51.8365         estimate D2E/DX2                !
 ! D31   D(6,7,12,13)          106.9259         estimate D2E/DX2                !
 ! D32   D(8,7,12,13)         -139.61           estimate D2E/DX2                !
 ! D33   D(23,7,12,13)         -16.5293         estimate D2E/DX2                !
 ! D34   D(7,8,9,10)           178.3141         estimate D2E/DX2                !
 ! D35   D(7,8,9,11)            -1.4045         estimate D2E/DX2                !
 ! D36   D(8,9,10,11)         -179.6711         estimate D2E/DX2                !
 ! D37   D(7,12,13,14)         168.0355         estimate D2E/DX2                !
 ! D38   D(7,12,13,15)         -16.6484         estimate D2E/DX2                !
 ! D39   D(12,13,14,15)        174.5058         estimate D2E/DX2                !
 ! D40   D(5,16,17,18)         179.9055         estimate D2E/DX2                !
 ! D41   D(5,16,17,19)           0.7522         estimate D2E/DX2                !
 ! D42   D(16,17,18,19)       -179.0103         estimate D2E/DX2                !
 --------------------------------------------------------------------------------
 Trust Radius=3.00D-01 FncErr=1.00D-07 GrdErr=1.00D-07 EigMax=2.50D+02 EigMin=1.00D-04
 Number of steps in this run=    108 maximum allowed number of steps=    138.
 GradGradGradGradGradGradGradGradGradGradGradGradGradGradGradGradGradGrad

                          Input orientation:                          
 ---------------------------------------------------------------------
 Center     Atomic      Atomic             Coordinates (Angstroms)
 Number     Number       Type             X           Y           Z
 ---------------------------------------------------------------------
      1          8           0       -2.247483    2.009069    0.876263
      2          7           0       -3.027916    1.418312    0.129372
      3          8           0       -4.167086    1.714138   -0.219014
      4          8           0       -2.552482    0.243849   -0.495865
      5          6           0       -1.265638   -0.160627   -0.026057
      6          6           0       -0.200467    0.537694   -0.890666
      7          6           0        1.256629    0.234147   -0.492268
      8          8           0        2.037295    0.789964   -1.564073
      9          7           0        3.386402    0.376634   -1.523743
     10          8           0        4.047514    0.823343   -2.456548
     11          8           0        3.717363   -0.358414   -0.594007
     12          8           0        1.557301    0.914284    0.723391
     13          7           0        1.645044    0.061875    1.844884
     14          8           0        2.128110    0.614077    2.827767
     15          8           0        1.156827   -1.061523    1.722500
     16          8           0       -1.085104   -1.564495   -0.245418
     17          7           0       -1.818147   -2.354575    0.669769
     18          8           0       -1.665799   -3.558227    0.481743
     19          8           0       -2.504757   -1.758186    1.498966
     20          1           0       -1.098243    0.069413    1.033548
     21          1           0       -0.356741    1.623815   -0.878324
     22          1           0       -0.348797    0.239126   -1.938304
     23          1           0        1.406173   -0.853692   -0.483917
 ---------------------------------------------------------------------
                    Distance matrix (angstroms):
                    1          2          3          4          5
     1  O    0.000000
     2  N    1.231226   0.000000
     3  O    2.229684   1.227434   0.000000
     4  O    2.256493   1.412913   2.201214   0.000000
     5  C    2.546720   2.371250   3.459823   1.428386   0.000000
     6  C    3.078516   3.132161   4.191564   2.402954   1.539413
     7  C    4.159571   4.488431   5.628653   3.809126   2.595194
     8  O    5.079447   5.377633   6.415421   4.743982   3.765433
     9  N    6.337629   6.705323   7.781158   6.028640   4.916624
    10  O    7.220842   7.556631   8.560358   6.909416   5.924953
    11  O    6.583773   7.012761   8.160921   6.299469   5.019162
    12  O    3.962110   4.650927   5.856322   4.338939   3.112249
    13  N    4.458874   5.159405   6.385179   4.809517   3.467276
    14  O    4.990009   5.874754   7.079725   5.752525   4.501334
    15  O    4.661971   5.118565   6.310136   4.514876   3.120481
    16  O    3.921691   3.579403   4.499861   2.342228   1.432326
    17  N    4.389574   3.998781   4.781410   2.941047   2.367034
    18  O    5.611487   5.171602   5.877527   4.024637   3.458565
    19  O    3.827030   3.498517   4.215664   2.826618   2.532450
    20  H    2.260035   2.522043   3.700247   2.117627   1.097133
    21  H    2.608046   2.862317   3.868020   2.621424   2.176393
    22  H    3.828773   3.583775   4.439702   2.633796   2.158029
    23  H    4.836807   5.019888   6.142080   4.108003   2.797955
                    6          7          8          9         10
     6  C    0.000000
     7  C    1.540776   0.000000
     8  O    2.350467   1.437754   0.000000
     9  N    3.645868   2.370690   1.411579   0.000000
    10  O    4.536400   3.463320   2.199683   1.227495   0.000000
    11  O    4.029939   2.533118   2.254424   1.230544   2.230383
    12  O    2.415937   1.425067   2.340585   2.946911   4.039980
    13  N    3.333999   2.375463   3.507843   3.805134   4.985379
    14  O    4.388035   3.453470   4.396298   4.536002   5.626001
    15  O    3.350877   2.567862   3.873601   4.192540   5.419708
    16  O    2.370259   2.963067   4.126948   5.039490   6.077387
    17  N    3.662931   4.184024   5.453678   6.273621   7.367428
    18  O    4.561499   4.885835   6.066715   6.710427   7.776480
    19  O    4.036230   4.699194   6.041979   6.957009   8.077291
    20  H    2.174370   2.810813   4.135024   5.171668   6.263225
    21  H    1.097376   2.164065   2.626208   3.997892   4.746473
    22  H    1.099404   2.160657   2.477278   3.760648   4.465135
    23  H    2.163953   1.098101   2.065588   2.552693   3.698702
                   11         12         13         14         15
    11  O    0.000000
    12  O    2.832166   0.000000
    13  N    3.227900   1.411399   0.000000
    14  O    3.896152   2.200987   1.226515   0.000000
    15  O    3.523764   2.249980   1.230999   2.229942   0.000000
    16  O    4.963852   3.750366   3.803703   4.951302   3.025217
    17  N    6.018609   4.699145   4.383357   5.389137   3.410380
    18  O    6.354090   5.518163   5.091657   6.107839   3.967395
    19  O    6.712277   4.923812   4.544572   5.371853   3.733966
    20  H    5.101179   2.803911   2.860760   3.731653   2.615150
    21  H    4.539646   2.594703   3.723259   4.574840   4.033139
    22  H    4.324100   3.342704   4.280109   5.384337   4.166542
    23  H    2.366224   2.146199   2.513690   3.693615   2.230167
                   16         17         18         19         20
    16  O    0.000000
    17  N    1.413911   0.000000
    18  O    2.200213   1.227738   0.000000
    19  O    2.257389   1.230724   2.231309   0.000000
    20  H    2.074990   2.554666   3.713001   2.352661   0.000000
    21  H    3.331127   4.512193   5.515159   4.658692   2.573178
    22  H    2.580903   3.960848   4.691589   4.522416   3.069589
    23  H    2.601651   3.738968   4.205238   4.477199   3.070329
                   21         22         23
    21  H    0.000000
    22  H    1.743842   0.000000
    23  H    3.066181   2.527728   0.000000
 Stoichiometry    C3H4N4O12
 Framework group  C1[X(C3H4N4O12)]
 Deg. of freedom    63
 Full point group                 C1      NOp   1
 Largest Abelian subgroup         C1      NOp   1
 Largest concise Abelian subgroup C1      NOp   1
                         Standard orientation:                         
 ---------------------------------------------------------------------
 Center     Atomic      Atomic             Coordinates (Angstroms)
 Number     Number       Type             X           Y           Z
 ---------------------------------------------------------------------
      1          8           0        2.153998   -1.834264    1.406779
      2          7           0        2.842008   -1.800919    0.386266
      3          8           0        3.865949   -2.415015    0.101619
      4          8           0        2.379361   -0.988341   -0.672978
      5          6           0        1.243206   -0.198171   -0.319326
      6          6           0       -0.022605   -1.023336   -0.613631
      7          6           0       -1.348080   -0.324802   -0.254247
      8          8           0       -2.358543   -1.170966   -0.828797
      9          7           0       -3.631685   -0.561544   -0.845241
     10          8           0       -4.489560   -1.268929   -1.365242
     11          8           0       -3.717406    0.565244   -0.358168
     12          8           0       -1.491214   -0.300799    1.163411
     13          7           0       -1.293030    0.975189    1.733168
     14          8           0       -1.643904    1.033762    2.906963
     15          8           0       -0.727237    1.811213    1.028684
     16          8           0        1.164344    0.951413   -1.170089
     17          7           0        2.123029    1.936766   -0.839715
     18          8           0        2.057811    2.922003   -1.569368
     19          8           0        2.885408    1.685020    0.093069
     20          1           0        1.246578    0.121863    0.730087
     21          1           0        0.026483   -1.988538   -0.093815
     22          1           0       -0.035804   -1.274983   -1.683766
     23          1           0       -1.386706    0.650333   -0.757682
 ---------------------------------------------------------------------
 Rotational constants (GHZ):           0.5000692           0.2333414           0.2111658
 Standard basis: 6-31G(d) (6D, 7F)
 There are   293 symmetry adapted cartesian basis functions of A   symmetry.
 There are   293 symmetry adapted basis functions of A   symmetry.
   293 basis functions,   548 primitive gaussians,   293 cartesian basis functions
    73 alpha electrons       73 beta electrons
       nuclear repulsion energy      1632.2419385802 Hartrees.
 NAtoms=   23 NActive=   23 NUniq=   23 SFac= 1.00D+00 NAtFMM=   60 NAOKFM=F Big=F
 Integral buffers will be    131072 words long.
 Raffenetti 1 integral format.
 Two-electron integral symmetry is turned on.
 One-electron integrals computed using PRISM.
 NBasis=   293 RedAO= T EigKep=  2.20D-03  NBF=   293
 NBsUse=   293 1.00D-06 EigRej= -1.00D+00 NBFU=   293
 ExpMin= 1.61D-01 ExpMax= 5.48D+03 ExpMxC= 8.25D+02 IAcc=3 IRadAn=         5 AccDes= 0.00D+00
 Harris functional with IExCor=  205 and IRadAn=       5 diagonalized for initial guess.
 HarFok:  IExCor=  205 AccDes= 0.00D+00 IRadAn=         5 IDoV= 1 UseB2=F ITyADJ=14
 ICtDFT=  3500011 ScaDFX=  1.000000  1.000000  1.000000  1.000000
 FoFCou: FMM=F IPFlag=           0 FMFlag=      100000 FMFlg1=           0
         NFxFlg=           0 DoJE=T BraDBF=F KetDBF=T FulRan=T
         wScrn=  0.000000 ICntrl=       500 IOpCl=  0 I1Cent=   200000004 NGrid=           0
         NMat0=    1 NMatS0=      1 NMatT0=    0 NMatD0=    1 NMtDS0=    0 NMtDT0=    0
 Petite list used in FoFCou.
 Requested convergence on RMS density matrix=1.00D-08 within 128 cycles.
 Requested convergence on MAX density matrix=1.00D-06.
 Requested convergence on             energy=1.00D-06.
 No special actions if energy rises.
 Integral accuracy reduced to 1.0D-05 until final iterations.
 Initial convergence to 1.0D-05 achieved.  Increase integral accuracy.
 SCF Done:  E(RHF) =  -1231.31520871     A.U. after   17 cycles
            NFock= 17  Conv=0.67D-08     -V/T= 2.0045

 **********************************************************************

            Population analysis using the SCF Density.

 **********************************************************************

 Orbital symmetries:
       Occupied  (A) (A) (A) (A) (A) (A) (A) (A) (A) (A) (A) (A)
                 (A) (A) (A) (A) (A) (A) (A) (A) (A) (A) (A) (A)
                 (A) (A) (A) (A) (A) (A) (A) (A) (A) (A) (A) (A)
                 (A) (A) (A) (A) (A) (A) (A) (A) (A) (A) (A) (A)
                 (A) (A) (A) (A) (A) (A) (A) (A) (A) (A) (A) (A)
                 (A) (A) (A) (A) (A) (A) (A) (A) (A) (A) (A) (A)
                 (A)
       Virtual   (A) (A) (A) (A) (A) (A) (A) (A) (A) (A) (A) (A)
                 (A) (A) (A) (A) (A) (A) (A) (A) (A) (A) (A) (A)
                 (A) (A) (A) (A) (A) (A) (A) (A) (A) (A) (A) (A)
                 (A) (A) (A) (A) (A) (A) (A) (A) (A) (A) (A) (A)
                 (A) (A) (A) (A) (A) (A) (A) (A) (A) (A) (A) (A)
                 (A) (A) (A) (A) (A) (A) (A) (A) (A) (A) (A) (A)
                 (A) (A) (A) (A) (A) (A) (A) (A) (A) (A) (A) (A)
                 (A) (A) (A) (A) (A) (A) (A) (A) (A) (A) (A) (A)
                 (A) (A) (A) (A) (A) (A) (A) (A) (A) (A) (A) (A)
                 (A) (A) (A) (A) (A) (A) (A) (A) (A) (A) (A) (A)
                 (A) (A) (A) (A) (A) (A) (A) (A) (A) (A) (A) (A)
                 (A) (A) (A) (A) (A) (A) (A) (A) (A) (A) (A) (A)
                 (A) (A) (A) (A) (A) (A) (A) (A) (A) (A) (A) (A)
                 (A) (A) (A) (A) (A) (A) (A) (A) (A) (A) (A) (A)
                 (A) (A) (A) (A) (A) (A) (A) (A) (A) (A) (A) (A)
                 (A) (A) (A) (A) (A) (A) (A) (A) (A) (A) (A) (A)
                 (A) (A) (A) (A) (A) (A) (A) (A) (A) (A) (A) (A)
                 (A) (A) (A) (A) (A) (A) (A) (A) (A) (A) (A) (A)
                 (A) (A) (A) (A)
 The electronic state is 1-A.
 Alpha  occ. eigenvalues --  -20.73821 -20.73695 -20.73669 -20.73374 -20.68909
 Alpha  occ. eigenvalues --  -20.68685 -20.68432 -20.68391 -20.68175 -20.68065
 Alpha  occ. eigenvalues --  -20.67970 -20.67849 -15.98213 -15.97933 -15.97419
 Alpha  occ. eigenvalues --  -15.97254 -11.44748 -11.44746 -11.31837  -1.70200
 Alpha  occ. eigenvalues --   -1.69786  -1.69228  -1.68959  -1.51370  -1.50950
 Alpha  occ. eigenvalues --   -1.47870  -1.47438  -1.47147  -1.46894  -1.45913
 Alpha  occ. eigenvalues --   -1.45756  -1.15895  -1.08138  -0.99653  -0.98339
 Alpha  occ. eigenvalues --   -0.97572  -0.91163  -0.89391  -0.86548  -0.86152
 Alpha  occ. eigenvalues --   -0.85032  -0.84412  -0.82070  -0.80965  -0.80528
 Alpha  occ. eigenvalues --   -0.80262  -0.79801  -0.79658  -0.78639  -0.78186
 Alpha  occ. eigenvalues --   -0.72475  -0.71270  -0.68831  -0.68163  -0.67647
 Alpha  occ. eigenvalues --   -0.64103  -0.61878  -0.60661  -0.59793  -0.58708
 Alpha  occ. eigenvalues --   -0.57604  -0.57149  -0.56865  -0.56403  -0.55893
 Alpha  occ. eigenvalues --   -0.55336  -0.55160  -0.54524  -0.53930  -0.51887
 Alpha  occ. eigenvalues --   -0.51379  -0.51085  -0.50737
 Alpha virt. eigenvalues --    0.04435   0.04930   0.05220   0.05428   0.16398
 Alpha virt. eigenvalues --    0.18043   0.20351   0.20730   0.23337   0.25103
 Alpha virt. eigenvalues --    0.25653   0.26830   0.28387   0.30196   0.35498
 Alpha virt. eigenvalues --    0.36777   0.38406   0.40790   0.42780   0.43339
 Alpha virt. eigenvalues --    0.43521   0.44378   0.54257   0.55280   0.56244
 Alpha virt. eigenvalues --    0.57313   0.67982   0.68686   0.69799   0.71840
 Alpha virt. eigenvalues --    0.73474   0.74015   0.76011   0.77157   0.78924
 Alpha virt. eigenvalues --    0.79986   0.80999   0.82203   0.82682   0.84172
 Alpha virt. eigenvalues --    0.84940   0.85227   0.86500   0.87881   0.88768
 Alpha virt. eigenvalues --    0.90605   0.91801   0.93983   0.97816   0.99115
 Alpha virt. eigenvalues --    1.01447   1.02748   1.03127   1.03866   1.04094
 Alpha virt. eigenvalues --    1.04473   1.05245   1.06060   1.07038   1.09383
 Alpha virt. eigenvalues --    1.10079   1.10776   1.12221   1.12896   1.14587
 Alpha virt. eigenvalues --    1.15023   1.16007   1.17397   1.17464   1.18766
 Alpha virt. eigenvalues --    1.19671   1.20398   1.20824   1.21533   1.22464
 Alpha virt. eigenvalues --    1.22572   1.23305   1.23611   1.24736   1.25971
 Alpha virt. eigenvalues --    1.27257   1.29282   1.31252   1.33902   1.34033
 Alpha virt. eigenvalues --    1.34624   1.35885   1.38545   1.39431   1.42139
 Alpha virt. eigenvalues --    1.45859   1.47632   1.49317   1.53444   1.53801
 Alpha virt. eigenvalues --    1.55485   1.57244   1.60456   1.61344   1.61984
 Alpha virt. eigenvalues --    1.62397   1.63825   1.64723   1.67362   1.67768
 Alpha virt. eigenvalues --    1.69994   1.70701   1.72260   1.75869   1.79755
 Alpha virt. eigenvalues --    1.80038   1.84232   1.86514   1.86833   1.92464
 Alpha virt. eigenvalues --    1.92809   1.95671   1.97680   1.99622   2.00601
 Alpha virt. eigenvalues --    2.00787   2.01708   2.02284   2.02631   2.03332
 Alpha virt. eigenvalues --    2.03409   2.03611   2.03825   2.03997   2.04442
 Alpha virt. eigenvalues --    2.05019   2.08146   2.11127   2.11924   2.13237
 Alpha virt. eigenvalues --    2.14286   2.15346   2.17511   2.20148   2.22441
 Alpha virt. eigenvalues --    2.22937   2.23657   2.25121   2.26988   2.27696
 Alpha virt. eigenvalues --    2.28658   2.29666   2.30950   2.31392   2.33132
 Alpha virt. eigenvalues --    2.33659   2.35025   2.37022   2.39291   2.40331
 Alpha virt. eigenvalues --    2.41755   2.42596   2.44127   2.45818   2.46974
 Alpha virt. eigenvalues --    2.48961   2.50176   2.58144   2.61370   2.66106
 Alpha virt. eigenvalues --    2.69553   2.72823   2.76158   2.77061   2.79768
 Alpha virt. eigenvalues --    2.83923   2.88315   2.92650   2.95783   2.97620
 Alpha virt. eigenvalues --    2.97944   2.99075   2.99446   3.01195   3.01473
 Alpha virt. eigenvalues --    3.03937   3.07266   3.10344   3.11437   3.13305
 Alpha virt. eigenvalues --    3.13456   3.15084   3.15504   3.15638   3.16519
 Alpha virt. eigenvalues --    3.16906   3.17245   3.20118   3.31434   3.33153
 Alpha virt. eigenvalues --    3.34628   3.35680   3.38285   3.40017   3.41029
 Alpha virt. eigenvalues --    3.42427   3.93474   3.97285   3.99409   4.02685
 Alpha virt. eigenvalues --    4.14232   4.16419   4.17510   4.18094   4.18713
 Alpha virt. eigenvalues --    4.21945   4.29250   4.30155   4.37258   4.44859
 Alpha virt. eigenvalues --    4.46114   4.59224   4.65476   4.86097   4.98331
          Condensed to atoms (all electrons):
               1          2          3          4          5          6
     1  O    8.277699   0.311535  -0.074579  -0.086683  -0.002837  -0.003528
     2  N    0.311535   5.235429   0.377656   0.196752  -0.028109  -0.000555
     3  O   -0.074579   0.377656   8.156270  -0.081925   0.002452  -0.000093
     4  O   -0.086683   0.196752  -0.081925   8.441776   0.128806  -0.039012
     5  C   -0.002837  -0.028109   0.002452   0.128806   4.644497   0.348381
     6  C   -0.003528  -0.000555  -0.000093  -0.039012   0.348381   5.231845
     7  C   -0.000035  -0.000084   0.000000   0.002352  -0.042300   0.334380
     8  O    0.000001   0.000000   0.000000  -0.000007   0.001514  -0.043853
     9  N    0.000000   0.000000   0.000000   0.000000  -0.000023   0.002923
    10  O    0.000000   0.000000   0.000000   0.000000   0.000000  -0.000129
    11  O    0.000000   0.000000   0.000000   0.000000   0.000015   0.000524
    12  O    0.000013  -0.000007   0.000000  -0.000014   0.002936  -0.051752
    13  N   -0.000003   0.000000   0.000000  -0.000004   0.000298   0.001307
    14  O    0.000000   0.000000   0.000000   0.000000   0.000039  -0.000099
    15  O    0.000001   0.000002   0.000000   0.000023   0.000442  -0.001817
    16  O    0.000119   0.000809  -0.000022  -0.024894   0.150329  -0.051178
    17  N   -0.000007   0.000048   0.000001  -0.000034  -0.037578   0.002823
    18  O    0.000000   0.000001   0.000000  -0.000094   0.003099  -0.000135
    19  O   -0.000082   0.000873  -0.000011  -0.002932   0.003636   0.000528
    20  H    0.005885  -0.002111  -0.000008  -0.028958   0.397012  -0.042891
    21  H    0.003823  -0.000924  -0.000060  -0.000912  -0.026597   0.377723
    22  H    0.000150   0.000159  -0.000020  -0.000750  -0.024848   0.374331
    23  H   -0.000004  -0.000003   0.000000   0.000013  -0.002949  -0.038900
               7          8          9         10         11         12
     1  O   -0.000035   0.000001   0.000000   0.000000   0.000000   0.000013
     2  N   -0.000084   0.000000   0.000000   0.000000   0.000000  -0.000007
     3  O    0.000000   0.000000   0.000000   0.000000   0.000000   0.000000
     4  O    0.002352  -0.000007   0.000000   0.000000   0.000000  -0.000014
     5  C   -0.042300   0.001514  -0.000023   0.000000   0.000015   0.002936
     6  C    0.334380  -0.043853   0.002923  -0.000129   0.000524  -0.051752
     7  C    4.689452   0.148795  -0.036686   0.003039   0.003866   0.127436
     8  O    0.148795   8.437731   0.191162  -0.083079  -0.086573  -0.030614
     9  N   -0.036686   0.191162   5.234530   0.375138   0.320883  -0.000190
    10  O    0.003039  -0.083079   0.375138   8.164754  -0.074394  -0.000103
    11  O    0.003866  -0.086573   0.320883  -0.074394   8.268667  -0.003072
    12  O    0.127436  -0.030614  -0.000190  -0.000103  -0.003072   8.448585
    13  N   -0.029128   0.000931   0.000166   0.000003   0.001623   0.192258
    14  O    0.002122  -0.000022   0.000010   0.000000  -0.000099  -0.081733
    15  O   -0.001034   0.000117  -0.000032   0.000000  -0.000120  -0.089619
    16  O    0.001961  -0.000022   0.000001   0.000000  -0.000001  -0.000002
    17  N   -0.000056   0.000000   0.000000   0.000000   0.000000  -0.000002
    18  O    0.000005   0.000000   0.000000   0.000000   0.000000   0.000000
    19  O   -0.000007   0.000000   0.000000   0.000000   0.000000   0.000000
    20  H   -0.000840  -0.000022   0.000001   0.000000   0.000000   0.002260
    21  H   -0.021177  -0.000230  -0.000133   0.000000  -0.000011  -0.001104
    22  H   -0.032632   0.001279  -0.000139  -0.000004   0.000011   0.002460
    23  H    0.396204  -0.028932  -0.003655  -0.000006   0.002492  -0.026458
              13         14         15         16         17         18
     1  O   -0.000003   0.000000   0.000001   0.000119  -0.000007   0.000000
     2  N    0.000000   0.000000   0.000002   0.000809   0.000048   0.000001
     3  O    0.000000   0.000000   0.000000  -0.000022   0.000001   0.000000
     4  O   -0.000004   0.000000   0.000023  -0.024894  -0.000034  -0.000094
     5  C    0.000298   0.000039   0.000442   0.150329  -0.037578   0.003099
     6  C    0.001307  -0.000099  -0.001817  -0.051178   0.002823  -0.000135
     7  C   -0.029128   0.002122  -0.001034   0.001961  -0.000056   0.000005
     8  O    0.000931  -0.000022   0.000117  -0.000022   0.000000   0.000000
     9  N    0.000166   0.000010  -0.000032   0.000001   0.000000   0.000000
    10  O    0.000003   0.000000   0.000000   0.000000   0.000000   0.000000
    11  O    0.001623  -0.000099  -0.000120  -0.000001   0.000000   0.000000
    12  O    0.192258  -0.081733  -0.089619  -0.000002  -0.000002   0.000000
    13  N    5.244309   0.379777   0.308296   0.000075  -0.000022   0.000002
    14  O    0.379777   8.146029  -0.074937   0.000000   0.000000   0.000000
    15  O    0.308296  -0.074937   8.289297  -0.000914   0.000716  -0.000023
    16  O    0.000075   0.000000  -0.000914   8.440091   0.189487  -0.082761
    17  N   -0.000022   0.000000   0.000716   0.189487   5.228796   0.375233
    18  O    0.000002   0.000000  -0.000023  -0.082761   0.375233   8.164355
    19  O   -0.000009   0.000000  -0.000074  -0.085951   0.325084  -0.074130
    20  H   -0.001307  -0.000221   0.003697  -0.030999  -0.003598   0.000009
    21  H    0.000062  -0.000005  -0.000016   0.001854  -0.000019   0.000001
    22  H   -0.000052   0.000001   0.000024  -0.000943  -0.000138  -0.000001
    23  H   -0.002948   0.000021   0.003942   0.003571  -0.000023   0.000016
              19         20         21         22         23
     1  O   -0.000082   0.005885   0.003823   0.000150  -0.000004
     2  N    0.000873  -0.002111  -0.000924   0.000159  -0.000003
     3  O   -0.000011  -0.000008  -0.000060  -0.000020   0.000000
     4  O   -0.002932  -0.028958  -0.000912  -0.000750   0.000013
     5  C    0.003636   0.397012  -0.026597  -0.024848  -0.002949
     6  C    0.000528  -0.042891   0.377723   0.374331  -0.038900
     7  C   -0.000007  -0.000840  -0.021177  -0.032632   0.396204
     8  O    0.000000  -0.000022  -0.000230   0.001279  -0.028932
     9  N    0.000000   0.000001  -0.000133  -0.000139  -0.003655
    10  O    0.000000   0.000000   0.000000  -0.000004  -0.000006
    11  O    0.000000   0.000000  -0.000011   0.000011   0.002492
    12  O    0.000000   0.002260  -0.001104   0.002460  -0.026458
    13  N   -0.000009  -0.001307   0.000062  -0.000052  -0.002948
    14  O    0.000000  -0.000221  -0.000005   0.000001   0.000021
    15  O   -0.000074   0.003697  -0.000016   0.000024   0.003942
    16  O   -0.085951  -0.030999   0.001854  -0.000943   0.003571
    17  N    0.325084  -0.003598  -0.000019  -0.000138  -0.000023
    18  O   -0.074130   0.000009   0.000001  -0.000001   0.000016
    19  O    8.255682   0.002966   0.000010  -0.000013   0.000011
    20  H    0.002966   0.415970  -0.000860   0.003008   0.000442
    21  H    0.000010  -0.000860   0.428434  -0.017452   0.002556
    22  H   -0.000013   0.003008  -0.017452   0.450866   0.000450
    23  H    0.000011   0.000442   0.002556   0.000450   0.393835
 Mulliken charges:
               1
     1  O   -0.431470
     2  N    0.908527
     3  O   -0.379661
     4  O   -0.503503
     5  C    0.481783
     6  C   -0.400822
     7  C    0.454367
     8  O   -0.508177
     9  N    0.916044
    10  O   -0.385218
    11  O   -0.433810
    12  O   -0.491279
    13  N    0.904367
    14  O   -0.370883
    15  O   -0.437969
    16  O   -0.510611
    17  N    0.919287
    18  O   -0.385577
    19  O   -0.425580
    20  H    0.280566
    21  H    0.255037
    22  H    0.244255
    23  H    0.300325
 Sum of Mulliken charges =   0.00000
 Mulliken charges with hydrogens summed into heavy atoms:
               1
     1  O   -0.431470
     2  N    0.908527
     3  O   -0.379661
     4  O   -0.503503
     5  C    0.762349
     6  C    0.098470
     7  C    0.754692
     8  O   -0.508177
     9  N    0.916044
    10  O   -0.385218
    11  O   -0.433810
    12  O   -0.491279
    13  N    0.904367
    14  O   -0.370883
    15  O   -0.437969
    16  O   -0.510611
    17  N    0.919287
    18  O   -0.385577
    19  O   -0.425580
 Electronic spatial extent (au):  <R**2>=           5263.4075
 Charge=              0.0000 electrons
 Dipole moment (field-independent basis, Debye):
    X=             -0.3136    Y=             -1.6754    Z=             -1.5483  Tot=              2.3027
 Quadrupole moment (field-independent basis, Debye-Ang):
   XX=           -129.0235   YY=           -116.8061   ZZ=           -112.0291
   XY=             -0.4360   XZ=              0.0793   YZ=              1.4494
 Traceless Quadrupole moment (field-independent basis, Debye-Ang):
   XX=             -9.7373   YY=              2.4801   ZZ=              7.2572
   XY=             -0.4360   XZ=              0.0793   YZ=              1.4494
 Octapole moment (field-independent basis, Debye-Ang**2):
  XXX=             19.4905  YYY=            -12.2366  ZZZ=            -14.4493  XYY=            -18.3873
  XXY=             22.1496  XXZ=             13.6025  XZZ=              5.0162  YZZ=             -2.1026
  YYZ=              4.3551  XYZ=             15.6116
 Hexadecapole moment (field-independent basis, Debye-Ang**3):
 XXXX=          -4289.2279 YYYY=          -1454.1377 ZZZZ=           -947.2521 XXXY=             18.4378
 XXXZ=            -83.4217 YYYX=            -16.7849 YYYZ=             25.0753 ZZZX=             29.6711
 ZZZY=             -3.4277 XXYY=           -996.3203 XXZZ=           -821.2484 YYZZ=           -417.4174
 XXYZ=            -26.6328 YYXZ=             -4.4135 ZZXY=             -2.8103
 N-N= 1.632241938580D+03 E-N=-6.161751083886D+03  KE= 1.225808348012D+03
 Calling FoFJK, ICntrl=      2127 FMM=F ISym2X=0 I1Cent= 0 IOpClX= 0 NMat=1 NMatS=1 NMatT=0.
 ***** Axes restored to original set *****
 -------------------------------------------------------------------
 Center     Atomic                   Forces (Hartrees/Bohr)
 Number     Number              X              Y              Z
 -------------------------------------------------------------------
      1        8          -0.058760628   -0.038155757   -0.049368577
      2        7          -0.023729093    0.021278882   -0.004589859
      3        8           0.097063813   -0.025062060    0.032098212
      4        8          -0.005643539    0.030020193    0.030016792
      5        6           0.032957862    0.005383082    0.007063878
      6        6           0.001736716    0.004898075   -0.019847184
      7        6          -0.020396457   -0.010052249   -0.026975543
      8        8           0.036521734   -0.018771708    0.030707325
      9        7           0.030515794    0.001365050   -0.015227588
     10        8          -0.053629781   -0.038201494    0.079212055
     11        8          -0.019137103    0.051441664   -0.067448540
     12        8           0.008927358   -0.042083260    0.024430134
     13        7           0.002538401    0.007706957    0.036239471
     14        8          -0.039773752   -0.050984800   -0.085127633
     15        8           0.036456987    0.073414816    0.014662461
     16        8          -0.043262785    0.003565265    0.031498135
     17        7          -0.012865420   -0.032931429    0.011608191
     18        8          -0.013175866    0.101164457    0.017467398
     19        8           0.050413638   -0.047571454   -0.058327422
     20        1          -0.014916016   -0.005615043   -0.018296759
     21        1          -0.000015723   -0.011516240    0.006230739
     22        1           0.002675554   -0.001262500    0.011229853
     23        1           0.005498306    0.021969555    0.012744460
 -------------------------------------------------------------------
 Cartesian Forces:  Max     0.101164457 RMS     0.036719330

 GradGradGradGradGradGradGradGradGradGradGradGradGradGradGradGradGradGrad
 Berny optimization.
 FormGI is forming the generalized inverse of G from B-inverse, IUseBI=4.
 Internal  Forces:  Max     0.106837478 RMS     0.030017101
 Search for a local minimum.
 Step number   1 out of a maximum of  108
 All quantities printed in internal units (Hartrees-Bohrs-Radians)
 Mixed Optimization -- RFO/linear search
 Second derivative matrix not updated -- first step.
 ITU=  0
     Eigenvalues ---    0.00230   0.00245   0.01111   0.01124   0.01142
     Eigenvalues ---    0.01144   0.01192   0.01264   0.01316   0.01360
     Eigenvalues ---    0.02915   0.02924   0.02929   0.02968   0.03180
     Eigenvalues ---    0.04666   0.05590   0.05658   0.06892   0.07056
     Eigenvalues ---    0.08687   0.08866   0.08892   0.12473   0.17566
     Eigenvalues ---    0.17718   0.20244   0.20247   0.21899   0.24947
     Eigenvalues ---    0.24980   0.24998   0.25000   0.25000   0.25000
     Eigenvalues ---    0.25000   0.25000   0.25000   0.25000   0.25000
     Eigenvalues ---    0.25000   0.28450   0.28571   0.33748   0.33893
     Eigenvalues ---    0.33974   0.34001   0.39895   0.40657   0.41222
     Eigenvalues ---    0.41706   0.43391   0.43546   0.43754   0.43782
     Eigenvalues ---    0.90578   0.90672   0.90785   0.90860   0.92035
     Eigenvalues ---    0.92138   0.92164   0.92554
 RFO step:  Lambda=-1.06454395D-01 EMin= 2.30000000D-03
 Linear search not attempted -- first point.
 Maximum step size (   0.300) exceeded in Quadratic search.
    -- Step size scaled by   0.798
 Iteration  1 RMS(Cart)=  0.07668674 RMS(Int)=  0.00160007
 Iteration  2 RMS(Cart)=  0.00329251 RMS(Int)=  0.00027547
 Iteration  3 RMS(Cart)=  0.00000559 RMS(Int)=  0.00027545
 Iteration  4 RMS(Cart)=  0.00000000 RMS(Int)=  0.00027545
 Variable       Old X    -DE/DX   Delta X   Delta X   Delta X     New X
                                 (Linear)    (Quad)   (Total)
    R1        2.32668  -0.08550   0.00000  -0.06744  -0.06744   2.25924
    R2        2.31951  -0.10523   0.00000  -0.08173  -0.08173   2.23779
    R3        2.67002  -0.04944   0.00000  -0.07284  -0.07284   2.59718
    R4        2.69926  -0.01410   0.00000  -0.02171  -0.02171   2.67755
    R5        2.90907  -0.01154   0.00000  -0.02349  -0.02349   2.88558
    R6        2.70670  -0.02647   0.00000  -0.04120  -0.04120   2.66551
    R7        2.07328  -0.02112   0.00000  -0.03778  -0.03778   2.03550
    R8        2.91165  -0.01014   0.00000  -0.02071  -0.02071   2.89093
    R9        2.07374  -0.01133   0.00000  -0.02027  -0.02027   2.05347
   R10        2.07757  -0.01072   0.00000  -0.01928  -0.01928   2.05829
   R11        2.71696  -0.02503   0.00000  -0.03954  -0.03954   2.67742
   R12        2.69299  -0.01234   0.00000  -0.01882  -0.01882   2.67417
   R13        2.07511  -0.02092   0.00000  -0.03750  -0.03750   2.03761
   R14        2.66750  -0.04476   0.00000  -0.06569  -0.06569   2.60181
   R15        2.31963  -0.10298   0.00000  -0.08000  -0.08000   2.23963
   R16        2.32539  -0.08684   0.00000  -0.06830  -0.06830   2.25709
   R17        2.66716  -0.04545   0.00000  -0.06667  -0.06667   2.60049
   R18        2.31778  -0.10684   0.00000  -0.08266  -0.08266   2.23512
   R19        2.32625  -0.08291   0.00000  -0.06534  -0.06534   2.26091
   R20        2.67191  -0.04312   0.00000  -0.06371  -0.06371   2.60820
   R21        2.32009  -0.10349   0.00000  -0.08047  -0.08047   2.23961
   R22        2.32573  -0.09048   0.00000  -0.07122  -0.07122   2.25451
    A1        2.27159  -0.00544   0.00000  -0.01203  -0.01206   2.25953
    A2        2.04203   0.00749   0.00000   0.01691   0.01688   2.05892
    A3        1.96821  -0.00194   0.00000  -0.00420  -0.00423   1.96398
    A4        1.97467   0.01374   0.00000   0.03078   0.03078   2.00545
    A5        1.88618   0.01018   0.00000   0.02499   0.02474   1.91092
    A6        1.91848  -0.01367   0.00000  -0.04931  -0.04938   1.86911
    A7        1.97767  -0.00557   0.00000  -0.01899  -0.01990   1.95777
    A8        1.84563  -0.00107   0.00000  -0.00323  -0.00307   1.84256
    A9        1.91958   0.00696   0.00000   0.03667   0.03646   1.95604
   A10        1.91154   0.00355   0.00000   0.01113   0.01042   1.92196
   A11        2.00398  -0.00087   0.00000  -0.00424  -0.00426   1.99971
   A12        1.92210  -0.00248   0.00000  -0.01041  -0.01041   1.91169
   A13        1.89511   0.00025   0.00000   0.00027   0.00027   1.89538
   A14        1.90366   0.00125   0.00000   0.00342   0.00337   1.90703
   A15        1.89704  -0.00046   0.00000  -0.00120  -0.00121   1.89583
   A16        1.83412   0.00266   0.00000   0.01393   0.01393   1.84805
   A17        1.81787  -0.00231   0.00000  -0.00441  -0.00414   1.81373
   A18        1.90295   0.01211   0.00000   0.03124   0.03113   1.93408
   A19        1.90278   0.00763   0.00000   0.03875   0.03867   1.94145
   A20        1.91438  -0.01202   0.00000  -0.04348  -0.04360   1.87078
   A21        1.89093   0.00491   0.00000   0.01579   0.01489   1.90583
   A22        2.02371  -0.00959   0.00000  -0.03465  -0.03561   1.98810
   A23        1.96541   0.01290   0.00000   0.02890   0.02890   1.99430
   A24        1.96761  -0.00023   0.00000  -0.00051  -0.00051   1.96710
   A25        2.04154   0.00547   0.00000   0.01225   0.01225   2.05378
   A26        2.27403  -0.00524   0.00000  -0.01174  -0.01174   2.26229
   A27        1.98527   0.01969   0.00000   0.04411   0.04411   2.02937
   A28        1.97071  -0.00193   0.00000  -0.00402  -0.00406   1.96664
   A29        2.03477   0.00955   0.00000   0.02172   0.02168   2.05644
   A30        2.27410  -0.00738   0.00000  -0.01623  -0.01628   2.25782
   A31        1.96407   0.01753   0.00000   0.03926   0.03926   2.00332
   A32        1.96532  -0.00100   0.00000  -0.00221  -0.00222   1.96310
   A33        2.04267   0.00548   0.00000   0.01229   0.01228   2.05495
   A34        2.27508  -0.00446   0.00000  -0.00996  -0.00997   2.26511
    D1        3.08304   0.00269   0.00000   0.01531   0.01523   3.09827
    D2        0.12314  -0.00103   0.00000  -0.00667  -0.00676   0.11638
    D3       -3.06867   0.00086   0.00000   0.00551   0.00560  -3.06307
    D4       -1.55066  -0.00775   0.00000  -0.04028  -0.04020  -1.59086
    D5        2.72621  -0.00486   0.00000  -0.02417  -0.02353   2.70268
    D6        0.58114   0.00471   0.00000   0.01172   0.01099   0.59213
    D7        3.11712   0.00502   0.00000   0.01846   0.01875   3.13586
    D8        0.96045   0.00598   0.00000   0.02539   0.02563   0.98608
    D9       -1.03904   0.00401   0.00000   0.01421   0.01449  -1.02455
   D10       -1.11234  -0.00642   0.00000  -0.02818  -0.02825  -1.14060
   D11        3.01418  -0.00545   0.00000  -0.02125  -0.02137   2.99281
   D12        1.01469  -0.00742   0.00000  -0.03243  -0.03251   0.98217
   D13        0.95001   0.00075   0.00000   0.00203   0.00186   0.95187
   D14       -1.20665   0.00172   0.00000   0.00895   0.00875  -1.19790
   D15        3.07704  -0.00025   0.00000  -0.00222  -0.00239   3.07465
   D16       -1.30690   0.00464   0.00000   0.00734   0.00747  -1.29943
   D17        2.94435   0.00005   0.00000   0.00419   0.00409   2.94844
   D18        0.87664  -0.00938   0.00000  -0.04294  -0.04297   0.83367
   D19        2.96970   0.00625   0.00000   0.02507   0.02515   2.99486
   D20       -1.27087  -0.00324   0.00000  -0.01300  -0.01331  -1.28418
   D21        0.95413  -0.00161   0.00000  -0.00802  -0.00777   0.94636
   D22       -1.14703   0.00332   0.00000   0.01091   0.01098  -1.13605
   D23        0.89558  -0.00617   0.00000  -0.02716  -0.02748   0.86810
   D24        3.12059  -0.00454   0.00000  -0.02217  -0.02195   3.09864
   D25        0.84372   0.00687   0.00000   0.02853   0.02861   0.87233
   D26        2.88633  -0.00262   0.00000  -0.00955  -0.00985   2.87647
   D27       -1.17185  -0.00099   0.00000  -0.00456  -0.00432  -1.17617
   D28       -2.92861  -0.00061   0.00000  -0.01023  -0.01022  -2.93882
   D29        1.31992  -0.00787   0.00000  -0.02403  -0.02420   1.29572
   D30       -0.90472   0.00915   0.00000   0.03884   0.03899  -0.86573
   D31        1.86621   0.00842   0.00000   0.04257   0.04236   1.90857
   D32       -2.43665   0.00583   0.00000   0.03109   0.03017  -2.40648
   D33       -0.28849  -0.00452   0.00000  -0.00895  -0.00781  -0.29630
   D34        3.11217   0.00078   0.00000   0.00537   0.00537   3.11753
   D35       -0.02451   0.00081   0.00000   0.00540   0.00540  -0.01911
   D36       -3.13585  -0.00002   0.00000  -0.00005  -0.00005  -3.13590
   D37        2.93277  -0.00225   0.00000  -0.01540  -0.01555   2.91722
   D38       -0.29057   0.00002   0.00000   0.00027   0.00042  -0.29015
   D39        3.04570   0.00373   0.00000   0.02077   0.02064   3.06634
   D40        3.13994  -0.00018   0.00000  -0.00169  -0.00164   3.13830
   D41        0.01313  -0.00145   0.00000  -0.00940  -0.00944   0.00369
   D42       -3.12432  -0.00159   0.00000  -0.00927  -0.00923  -3.13355
         Item               Value     Threshold  Converged?
 Maximum Force            0.106837     0.000450     NO 
 RMS     Force            0.030017     0.000300     NO 
 Maximum Displacement     0.261849     0.001800     NO 
 RMS     Displacement     0.075827     0.001200     NO 
 Predicted change in Energy=-5.675739D-02
 GradGradGradGradGradGradGradGradGradGradGradGradGradGradGradGradGradGrad

                          Input orientation:                          
 ---------------------------------------------------------------------
 Center     Atomic      Atomic             Coordinates (Angstroms)
 Number     Number       Type             X           Y           Z
 ---------------------------------------------------------------------
      1          8           0       -2.359332    1.990991    0.868751
      2          7           0       -3.062835    1.380224    0.119516
      3          8           0       -4.167468    1.615811   -0.236265
      4          8           0       -2.544572    0.257543   -0.480379
      5          6           0       -1.262384   -0.128488   -0.017160
      6          6           0       -0.189080    0.532740   -0.878830
      7          6           0        1.247628    0.199251   -0.472642
      8          8           0        2.033145    0.749934   -1.515289
      9          7           0        3.352579    0.356984   -1.497659
     10          8           0        3.977607    0.812470   -2.395702
     11          8           0        3.702425   -0.372490   -0.618988
     12          8           0        1.602662    0.874047    0.719471
     13          7           0        1.740910    0.092632    1.843742
     14          8           0        2.266675    0.665138    2.735236
     15          8           0        1.270619   -1.007240    1.820682
     16          8           0       -1.136388   -1.513583   -0.252147
     17          7           0       -1.856283   -2.314655    0.610978
     18          8           0       -1.723984   -3.468510    0.374965
     19          8           0       -2.507132   -1.777722    1.454443
     20          1           0       -1.127821    0.083372    1.030334
     21          1           0       -0.324707    1.610796   -0.864293
     22          1           0       -0.337702    0.227489   -1.913767
     23          1           0        1.405438   -0.866731   -0.434999
 ---------------------------------------------------------------------
                    Distance matrix (angstroms):
                    1          2          3          4          5
     1  O    0.000000
     2  N    1.195536   0.000000
     3  O    2.152016   1.184185   0.000000
     4  O    2.204384   1.374366   2.130323   0.000000
     5  C    2.545648   2.352980   3.395600   1.416897   0.000000
     6  C    3.144921   3.158068   4.172949   2.404754   1.526983
     7  C    4.244977   4.508375   5.602302   3.792656   2.571972
     8  O    5.149537   5.388773   6.390090   4.719003   3.725121
     9  N    6.394982   6.694760   7.728316   5.985076   4.870877
    10  O    7.225120   7.497766   8.464678   6.820208   5.830984
    11  O    6.674152   7.027527   8.126194   6.280217   5.007101
    12  O    4.119132   4.731070   5.895595   4.361109   3.123490
    13  N    4.622376   5.263727   6.446351   4.877919   3.540004
    14  O    5.161549   5.979717   7.150650   5.801242   4.545303
    15  O    4.803343   5.231900   6.378418   4.631440   3.250534
    16  O    3.877376   3.496205   4.356697   2.274194   1.410526
    17  N    4.342590   3.917835   4.637668   2.877673   2.350872
    18  O    5.518482   5.036666   5.674024   3.910045   3.394493
    19  O    3.816815   3.473249   4.138995   2.808423   2.536727
    20  H    2.276343   2.501138   3.632092   2.078406   1.077142
    21  H    2.699572   2.918628   3.893746   2.628020   2.149879
    22  H    3.865143   3.590179   4.405515   2.631688   2.139830
    23  H    4.903043   5.032073   6.104080   4.107144   2.799440
                    6          7          8          9         10
     6  C    0.000000
     7  C    1.529815   0.000000
     8  O    2.321753   1.416829   0.000000
     9  N    3.599609   2.346563   1.376817   0.000000
    10  O    4.443021   3.395141   2.135408   1.185162   0.000000
    11  O    4.003844   2.524744   2.202201   1.194399   2.153269
    12  O    2.425159   1.415109   2.279227   2.871451   3.917711
    13  N    3.366148   2.370723   3.435191   3.719182   4.847047
    14  O    4.371468   3.397939   4.257780   4.380816   5.410686
    15  O    3.433602   2.591425   3.846793   4.148139   5.330762
    16  O    2.340419   2.943799   4.094506   5.020074   6.013177
    17  N    3.620324   4.138625   5.388912   6.222238   7.270028
    18  O    4.465191   4.795976   5.956875   6.626660   7.649283
    19  O    4.019423   4.660504   5.985188   6.899861   7.973992
    20  H    2.174413   2.813383   4.112932   5.151659   6.191502
    21  H    1.086651   2.148973   2.593134   3.936448   4.635994
    22  H    1.089202   2.142641   2.460213   3.715923   4.381365
    23  H    2.167485   1.078257   2.043196   2.533394   3.644191
                   11         12         13         14         15
    11  O    0.000000
    12  O    2.784660   0.000000
    13  N    3.182596   1.376120   0.000000
    14  O    3.793266   2.132572   1.182773   0.000000
    15  O    3.502653   2.205031   1.196421   2.150670   0.000000
    16  O    4.985056   3.761279   3.905320   5.025149   3.216627
    17  N    6.015318   4.705729   4.500504   5.512750   3.598643
    18  O    6.326073   5.481156   5.181171   6.211545   4.137100
    19  O    6.695699   4.945955   4.657858   5.513367   3.872876
    20  H    5.124388   2.859605   2.981835   3.842882   2.750745
    21  H    4.495707   2.601126   3.728947   4.534990   4.075324
    22  H    4.284746   3.334215   4.296241   5.346732   4.249395
    23  H    2.356751   2.098096   2.495111   3.624740   2.264071
                   16         17         18         19         20
    16  O    0.000000
    17  N    1.380199   0.000000
    18  O    2.135481   1.185153   0.000000
    19  O    2.204803   1.193036   2.153453   0.000000
    20  H    2.048194   2.541072   3.660709   2.355003   0.000000
    21  H    3.285619   4.464450   5.412309   4.649900   2.562738
    22  H    2.535786   3.891390   4.562947   4.480194   3.051686
    23  H    2.629208   3.718786   4.149528   4.439380   3.076897
                   21         22         23
    21  H    0.000000
    22  H    1.736405   0.000000
    23  H    3.052185   2.534286   0.000000
 Stoichiometry    C3H4N4O12
 Framework group  C1[X(C3H4N4O12)]
 Deg. of freedom    63
 Full point group                 C1      NOp   1
 Largest Abelian subgroup         C1      NOp   1
 Largest concise Abelian subgroup C1      NOp   1
                         Standard orientation:                         
 ---------------------------------------------------------------------
 Center     Atomic      Atomic             Coordinates (Angstroms)
 Number     Number       Type             X           Y           Z
 ---------------------------------------------------------------------
      1          8           0        2.265360   -1.790865    1.441254
      2          7           0        2.897820   -1.727546    0.428688
      3          8           0        3.906717   -2.274160    0.136054
      4          8           0        2.399954   -0.957610   -0.595134
      5          6           0        1.247242   -0.201787   -0.267134
      6          6           0       -0.004136   -1.014075   -0.592589
      7          6           0       -1.322588   -0.306477   -0.274278
      8          8           0       -2.308759   -1.154067   -0.836827
      9          7           0       -3.566750   -0.597566   -0.895053
     10          8           0       -4.363698   -1.319410   -1.393474
     11          8           0       -3.705848    0.505938   -0.459714
     12          8           0       -1.549483   -0.270230    1.122052
     13          7           0       -1.437439    0.961363    1.725652
     14          8           0       -1.869407    0.970634    2.826684
     15          8           0       -0.875596    1.829302    1.123624
     16          8           0        1.216441    0.906690   -1.138865
     17          7           0        2.133596    1.896458   -0.848806
     18          8           0        2.074793    2.805100   -1.607423
     19          8           0        2.854555    1.728565    0.086804
     20          1           0        1.257996    0.132290    0.756835
     21          1           0        0.030590   -1.962536   -0.063413
     22          1           0        0.009631   -1.263503   -1.652757
     23          1           0       -1.372143    0.659745   -0.750301
 ---------------------------------------------------------------------
 Rotational constants (GHZ):           0.5161858           0.2318901           0.2125855
 Standard basis: 6-31G(d) (6D, 7F)
 There are   293 symmetry adapted cartesian basis functions of A   symmetry.
 There are   293 symmetry adapted basis functions of A   symmetry.
   293 basis functions,   548 primitive gaussians,   293 cartesian basis functions
    73 alpha electrons       73 beta electrons
       nuclear repulsion energy      1650.0533664385 Hartrees.
 NAtoms=   23 NActive=   23 NUniq=   23 SFac= 1.00D+00 NAtFMM=   60 NAOKFM=F Big=F
 Integral buffers will be    131072 words long.
 Raffenetti 1 integral format.
 Two-electron integral symmetry is turned on.
 One-electron integrals computed using PRISM.
 NBasis=   293 RedAO= T EigKep=  1.97D-03  NBF=   293
 NBsUse=   293 1.00D-06 EigRej= -1.00D+00 NBFU=   293
 Initial guess from the checkpoint file:  "C:\g16w\Scratch\Gau-16080.chk"
 B after Tr=     0.000000    0.000000    0.000000
         Rot=    0.999909    0.004880    0.009632   -0.008144 Ang=   1.55 deg.
 ExpMin= 1.61D-01 ExpMax= 5.48D+03 ExpMxC= 8.25D+02 IAcc=3 IRadAn=         5 AccDes= 0.00D+00
 Harris functional with IExCor=  205 and IRadAn=       5 diagonalized for initial guess.
 HarFok:  IExCor=  205 AccDes= 0.00D+00 IRadAn=         5 IDoV= 1 UseB2=F ITyADJ=14
 ICtDFT=  3500011 ScaDFX=  1.000000  1.000000  1.000000  1.000000
 FoFCou: FMM=F IPFlag=           0 FMFlag=      100000 FMFlg1=           0
         NFxFlg=           0 DoJE=T BraDBF=F KetDBF=T FulRan=T
         wScrn=  0.000000 ICntrl=       500 IOpCl=  0 I1Cent=   200000004 NGrid=           0
         NMat0=    1 NMatS0=      1 NMatT0=    0 NMatD0=    1 NMtDS0=    0 NMtDT0=    0
 Petite list used in FoFCou.
 Requested convergence on RMS density matrix=1.00D-08 within 128 cycles.
 Requested convergence on MAX density matrix=1.00D-06.
 Requested convergence on             energy=1.00D-06.
 No special actions if energy rises.
 Integral accuracy reduced to 1.0D-05 until final iterations.
 Initial convergence to 1.0D-05 achieved.  Increase integral accuracy.
 SCF Done:  E(RHF) =  -1231.37320832     A.U. after   15 cycles
            NFock= 15  Conv=0.66D-08     -V/T= 2.0030
 Calling FoFJK, ICntrl=      2127 FMM=F ISym2X=0 I1Cent= 0 IOpClX= 0 NMat=1 NMatS=1 NMatT=0.
 ***** Axes restored to original set *****
 -------------------------------------------------------------------
 Center     Atomic                   Forces (Hartrees/Bohr)
 Number     Number              X              Y              Z
 -------------------------------------------------------------------
      1        8          -0.013972524   -0.014146763   -0.014517609
      2        7          -0.012250070    0.001760139   -0.008785847
      3        8           0.029545294   -0.006197778    0.011639381
      4        8          -0.001006406    0.015734322    0.014325441
      5        6           0.019506890   -0.000880050    0.000907725
      6        6          -0.000154711    0.003717131   -0.010089043
      7        6          -0.011074979   -0.001755599   -0.017491675
      8        8           0.016213630   -0.009304398    0.014994486
      9        7           0.008169088    0.004533411   -0.010078495
     10        8          -0.016706173   -0.012460877    0.025354946
     11        8          -0.007953045    0.015097993   -0.019225188
     12        8           0.001089393   -0.019906743    0.012433909
     13        7           0.001900696    0.011094999    0.011670506
     14        8          -0.012504814   -0.017508425   -0.025368740
     15        8           0.010144686    0.021606037   -0.002042880
     16        8          -0.019472911    0.001894279    0.013785517
     17        7          -0.001641325   -0.013772094   -0.000094409
     18        8          -0.003483567    0.031950106    0.006789371
     19        8           0.016553596   -0.011512968   -0.018931824
     20        1          -0.007599561   -0.000625404   -0.004108677
     21        1           0.000218773   -0.003363866    0.004719278
     22        1           0.001452829   -0.002237281    0.004972712
     23        1           0.003025212    0.006283831    0.009141115
 -------------------------------------------------------------------
 Cartesian Forces:  Max     0.031950106 RMS     0.012709139

 GradGradGradGradGradGradGradGradGradGradGradGradGradGradGradGradGradGrad
 Berny optimization.
 Using GEDIIS/GDIIS optimizer.
 FormGI is forming the generalized inverse of G from B-inverse, IUseBI=4.
 Internal  Forces:  Max     0.033154570 RMS     0.009827504
 Search for a local minimum.
 Step number   2 out of a maximum of  108
 All quantities printed in internal units (Hartrees-Bohrs-Radians)
 Mixed Optimization -- RFO/linear search
 Update second derivatives using D2CorX and points    1    2
 DE= -5.80D-02 DEPred=-5.68D-02 R= 1.02D+00
 TightC=F SS=  1.41D+00  RLast= 3.27D-01 DXNew= 5.0454D-01 9.8150D-01
 Trust test= 1.02D+00 RLast= 3.27D-01 DXMaxT set to 5.05D-01
 ITU=  1  0
 Use linear search instead of GDIIS.
     Eigenvalues ---    0.00230   0.00245   0.01111   0.01124   0.01141
     Eigenvalues ---    0.01144   0.01192   0.01264   0.01318   0.01366
     Eigenvalues ---    0.02900   0.02906   0.02909   0.02934   0.03232
     Eigenvalues ---    0.04686   0.05251   0.05315   0.06975   0.07119
     Eigenvalues ---    0.08615   0.09271   0.09379   0.12422   0.17885
     Eigenvalues ---    0.18035   0.19877   0.20016   0.21904   0.24603
     Eigenvalues ---    0.24975   0.24991   0.25000   0.25000   0.25000
     Eigenvalues ---    0.25000   0.25000   0.25000   0.25000   0.25000
     Eigenvalues ---    0.25750   0.28388   0.28570   0.33742   0.33929
     Eigenvalues ---    0.33978   0.34299   0.39915   0.40686   0.41278
     Eigenvalues ---    0.41683   0.42365   0.43443   0.43648   0.43815
     Eigenvalues ---    0.88323   0.90615   0.90770   0.90839   0.91355
     Eigenvalues ---    0.92077   0.92181   0.92468
 RFO step:  Lambda=-4.91462879D-03 EMin= 2.30045781D-03
 Quartic linear search produced a step of  0.41446.
 Iteration  1 RMS(Cart)=  0.11793319 RMS(Int)=  0.00470751
 Iteration  2 RMS(Cart)=  0.00597505 RMS(Int)=  0.00027603
 Iteration  3 RMS(Cart)=  0.00002097 RMS(Int)=  0.00027564
 Iteration  4 RMS(Cart)=  0.00000000 RMS(Int)=  0.00027564
 Variable       Old X    -DE/DX   Delta X   Delta X   Delta X     New X
                                 (Linear)    (Quad)   (Total)
    R1        2.25924  -0.02455  -0.02795   0.00044  -0.02751   2.23172
    R2        2.23779  -0.03229  -0.03387  -0.00271  -0.03658   2.20121
    R3        2.59718  -0.02153  -0.03019  -0.01906  -0.04925   2.54793
    R4        2.67755  -0.00374  -0.00900   0.00250  -0.00650   2.67105
    R5        2.88558  -0.00559  -0.00973  -0.00837  -0.01811   2.86747
    R6        2.66551  -0.00938  -0.01707  -0.00329  -0.02036   2.64515
    R7        2.03550  -0.00507  -0.01566   0.00751  -0.00814   2.02736
    R8        2.89093  -0.00688  -0.00859  -0.01698  -0.02557   2.86536
    R9        2.05347  -0.00330  -0.00840   0.00164  -0.00676   2.04671
   R10        2.05829  -0.00430  -0.00799  -0.00326  -0.01125   2.04704
   R11        2.67742  -0.00911  -0.01639  -0.00393  -0.02032   2.65710
   R12        2.67417  -0.00488  -0.00780  -0.00322  -0.01102   2.66314
   R13        2.03761  -0.00545  -0.01554   0.00570  -0.00984   2.02777
   R14        2.60181  -0.01790  -0.02723  -0.01213  -0.03936   2.56245
   R15        2.23963  -0.03281  -0.03316  -0.00450  -0.03766   2.20198
   R16        2.25709  -0.02569  -0.02831  -0.00075  -0.02906   2.22803
   R17        2.60049  -0.02153  -0.02763  -0.02304  -0.05067   2.54982
   R18        2.23512  -0.03315  -0.03426  -0.00332  -0.03758   2.19754
   R19        2.26091  -0.02381  -0.02708   0.00041  -0.02667   2.23424
   R20        2.60820  -0.01748  -0.02640  -0.01250  -0.03891   2.56929
   R21        2.23961  -0.03285  -0.03335  -0.00433  -0.03768   2.20193
   R22        2.25451  -0.02760  -0.02952  -0.00205  -0.03157   2.22294
    A1        2.25953   0.00002  -0.00500   0.01077   0.00560   2.26513
    A2        2.05892  -0.00293   0.00700  -0.03025  -0.02343   2.03549
    A3        1.96398   0.00298  -0.00175   0.02048   0.01855   1.98253
    A4        2.00545   0.00765   0.01276   0.01628   0.02904   2.03449
    A5        1.91092   0.00303   0.01025  -0.00503   0.00520   1.91613
    A6        1.86911  -0.00541  -0.02046   0.00048  -0.02005   1.84906
    A7        1.95777  -0.00306  -0.00825  -0.01725  -0.02588   1.93189
    A8        1.84256   0.00045  -0.00127   0.00992   0.00858   1.85113
    A9        1.95604   0.00360   0.01511   0.00616   0.02105   1.97709
   A10        1.92196   0.00120   0.00432   0.00717   0.01070   1.93266
   A11        1.99971  -0.00430  -0.00177  -0.03228  -0.03436   1.96536
   A12        1.91169  -0.00025  -0.00432  -0.00233  -0.00699   1.90469
   A13        1.89538   0.00135   0.00011   0.00849   0.00852   1.90390
   A14        1.90703   0.00147   0.00140  -0.00019   0.00071   1.90774
   A15        1.89583   0.00062  -0.00050   0.00251   0.00197   1.89779
   A16        1.84805   0.00156   0.00577   0.02879   0.03453   1.88258
   A17        1.81373   0.00109  -0.00171   0.02493   0.02283   1.83657
   A18        1.93408   0.00193   0.01290  -0.02246  -0.00970   1.92437
   A19        1.94145   0.00426   0.01603   0.00307   0.01789   1.95934
   A20        1.87078  -0.00370  -0.01807   0.01541  -0.00249   1.86828
   A21        1.90583   0.00219   0.00617   0.02966   0.03462   1.94045
   A22        1.98810  -0.00545  -0.01476  -0.04238  -0.05742   1.93068
   A23        1.99430   0.00922   0.01198   0.02658   0.03856   2.03286
   A24        1.96710   0.00108  -0.00021   0.00639   0.00618   1.97327
   A25        2.05378  -0.00085   0.00508  -0.01511  -0.01004   2.04374
   A26        2.26229  -0.00023  -0.00486   0.00870   0.00383   2.26612
   A27        2.02937   0.00269   0.01828  -0.02255  -0.00427   2.02511
   A28        1.96664   0.00278  -0.00168   0.01981   0.01771   1.98436
   A29        2.05644  -0.00374   0.00898  -0.03827  -0.02970   2.02674
   A30        2.25782   0.00114  -0.00675   0.02123   0.01408   2.27189
   A31        2.00332   0.00844   0.01627   0.01344   0.02971   2.03303
   A32        1.96310   0.00093  -0.00092   0.00708   0.00610   1.96920
   A33        2.05495  -0.00167   0.00509  -0.01965  -0.01462   2.04032
   A34        2.26511   0.00075  -0.00413   0.01268   0.00849   2.27360
    D1        3.09827   0.00186   0.00631   0.02782   0.03426   3.13253
    D2        0.11638  -0.00067  -0.00280   0.00626   0.00361   0.12000
    D3       -3.06307   0.00102   0.00232   0.03152   0.03369  -3.02938
    D4       -1.59086  -0.00327  -0.01666  -0.00143  -0.01803  -1.60889
    D5        2.70268  -0.00246  -0.00975  -0.01080  -0.02007   2.68262
    D6        0.59213   0.00147   0.00455  -0.00959  -0.00557   0.58655
    D7        3.13586   0.00176   0.00777   0.01332   0.02132  -3.12600
    D8        0.98608   0.00313   0.01062   0.03872   0.04935   1.03544
    D9       -1.02455   0.00066   0.00601   0.00103   0.00714  -1.01741
   D10       -1.14060  -0.00286  -0.01171   0.01666   0.00495  -1.13565
   D11        2.99281  -0.00149  -0.00886   0.04205   0.03298   3.02579
   D12        0.98217  -0.00396  -0.01348   0.00437  -0.00923   0.97294
   D13        0.95187   0.00088   0.00077   0.03500   0.03589   0.98776
   D14       -1.19790   0.00224   0.00363   0.06040   0.06392  -1.13399
   D15        3.07465  -0.00023  -0.00099   0.02271   0.02171   3.09636
   D16       -1.29943   0.00076   0.00309  -0.07352  -0.07037  -1.36980
   D17        2.94844  -0.00041   0.00170  -0.07278  -0.07104   2.87740
   D18        0.83367  -0.00565  -0.01781  -0.08999  -0.10790   0.72576
   D19        2.99486   0.00325   0.01042   0.05350   0.06417   3.05903
   D20       -1.28418   0.00040  -0.00552   0.07460   0.06899  -1.21519
   D21        0.94636  -0.00198  -0.00322   0.00305  -0.00034   0.94602
   D22       -1.13605   0.00098   0.00455   0.02708   0.03190  -1.10415
   D23        0.86810  -0.00187  -0.01139   0.04818   0.03672   0.90482
   D24        3.09864  -0.00426  -0.00910  -0.02337  -0.03261   3.06603
   D25        0.87233   0.00396   0.01186   0.06252   0.07461   0.94694
   D26        2.87647   0.00111  -0.00408   0.08362   0.07943   2.95590
   D27       -1.17617  -0.00128  -0.00179   0.01207   0.01010  -1.16607
   D28       -2.93882  -0.00106  -0.00423   0.04184   0.03724  -2.90158
   D29        1.29572  -0.00215  -0.01003   0.04868   0.03844   1.33417
   D30       -0.86573   0.00550   0.01616   0.07275   0.08947  -0.77625
   D31        1.90857   0.00194   0.01756  -0.07213  -0.05418   1.85439
   D32       -2.40648   0.00218   0.01251  -0.04551  -0.03346  -2.43994
   D33       -0.29630  -0.00108  -0.00324  -0.02383  -0.02702  -0.32333
   D34        3.11753   0.00125   0.00222   0.07540   0.07763  -3.08802
   D35       -0.01911   0.00136   0.00224   0.07996   0.08219   0.06308
   D36       -3.13590   0.00013  -0.00002   0.00533   0.00532  -3.13058
   D37        2.91722  -0.00223  -0.00644  -0.05611  -0.06216   2.85506
   D38       -0.29015   0.00026   0.00018  -0.01539  -0.01561  -0.30576
   D39        3.06634   0.00263   0.00855   0.04377   0.05266   3.11900
   D40        3.13830  -0.00069  -0.00068  -0.06124  -0.06200   3.07630
   D41        0.00369  -0.00169  -0.00391  -0.07573  -0.07956  -0.07588
   D42       -3.13355  -0.00113  -0.00383  -0.01651  -0.02041   3.12923
         Item               Value     Threshold  Converged?
 Maximum Force            0.033155     0.000450     NO 
 RMS     Force            0.009828     0.000300     NO 
 Maximum Displacement     0.525988     0.001800     NO 
 RMS     Displacement     0.117557     0.001200     NO 
 Predicted change in Energy=-1.013627D-02
 GradGradGradGradGradGradGradGradGradGradGradGradGradGradGradGradGradGrad

                          Input orientation:                          
 ---------------------------------------------------------------------
 Center     Atomic      Atomic             Coordinates (Angstroms)
 Number     Number       Type             X           Y           Z
 ---------------------------------------------------------------------
      1          8           0       -2.384818    2.002542    0.800129
      2          7           0       -3.074374    1.366519    0.082706
      3          8           0       -4.180482    1.542607   -0.237203
      4          8           0       -2.520332    0.269588   -0.472004
      5          6           0       -1.228396   -0.083413   -0.020169
      6          6           0       -0.180001    0.555055   -0.912208
      7          6           0        1.234088    0.199390   -0.496307
      8          8           0        2.062650    0.771665   -1.477651
      9          7           0        3.353717    0.357490   -1.495243
     10          8           0        3.999419    0.909843   -2.292581
     11          8           0        3.656043   -0.490732   -0.734181
     12          8           0        1.553606    0.820648    0.727623
     13          7           0        1.593926    0.013868    1.808415
     14          8           0        2.142899    0.481698    2.720594
     15          8           0        1.058600   -1.034282    1.695887
     16          8           0       -1.115993   -1.464572   -0.217832
     17          7           0       -1.727584   -2.260117    0.699557
     18          8           0       -1.653190   -3.392875    0.436789
     19          8           0       -2.228791   -1.724198    1.618976
     20          1           0       -1.109275    0.162729    1.017229
     21          1           0       -0.300567    1.631113   -0.887515
     22          1           0       -0.335576    0.226582   -1.932662
     23          1           0        1.384433   -0.861148   -0.432348
 ---------------------------------------------------------------------
                    Distance matrix (angstroms):
                    1          2          3          4          5
     1  O    0.000000
     2  N    1.180977   0.000000
     3  O    2.124148   1.164828   0.000000
     4  O    2.154023   1.348304   2.105186   0.000000
     5  C    2.522184   2.349579   3.377256   1.413458   0.000000
     6  C    3.144604   3.166342   4.175493   2.398420   1.517401
     7  C    4.246008   4.501143   5.584706   3.755155   2.523987
     8  O    5.146194   5.401627   6.411689   4.718806   3.699512
     9  N    6.395757   6.695403   7.729898   5.963153   4.833838
    10  O    7.177557   7.475900   8.457881   6.799381   5.786230
    11  O    6.712863   7.029595   8.111263   6.228518   4.953127
    12  O    4.112581   4.704476   5.859342   4.282493   3.019280
    13  N    4.560907   5.157592   6.313904   4.710926   3.364325
    14  O    5.147949   5.912808   7.061108   5.655387   4.381411
    15  O    4.677800   5.044568   6.150217   4.382759   3.013195
    16  O    3.829757   3.455526   4.293553   2.245904   1.399752
    17  N    4.314202   3.917504   4.621141   2.898347   2.346324
    18  O    5.456905   4.979656   5.585737   3.871882   3.367759
    19  O    3.818828   3.553543   4.233971   2.903855   2.525819
    20  H    2.249234   2.486776   3.593045   2.054340   1.072832
    21  H    2.707435   2.950482   3.935033   2.636998   2.133719
    22  H    3.849880   3.586389   4.403386   2.628409   2.133273
    23  H    4.891521   5.010862   6.065014   4.065381   2.757106
                    6          7          8          9         10
     6  C    0.000000
     7  C    1.516285   0.000000
     8  O    2.322957   1.406076   0.000000
[...]
 00079780,0.00022227,0.00231144,0.00079883,0.00129070,0.00347310,0.0033
 3460,-0.00288088,-0.00598283,0.00029324,0.00115740,0.00186380,0.000391
 34,-0.00103319,0.00159197,-0.00006442,0.00002218,0.00983356,0.06543697
 ,-0.00386803,-0.01999650,0.00295786,-0.16305597,-0.04089255,-0.0737697
 6,0.01899638,0.04852302,-0.00679431,0.15650160,0.00213389,0.00136022,0
 .00284865,-0.00195043,-0.00031319,-0.01072389,-0.00198002,0.00112430,0
 .00166091,-0.01290705,0.05204538,0.01121586,-0.08725406,0.00115417,0.0
 2598236,0.00123932,-0.03408045,-0.00438493,0.00114452,0.00131080,-0.00
 034679,-0.00234295,-0.00097048,0.00073282,0.00326654,0.00001531,-0.000
 86649,-0.00123255,-0.00027760,0.00074413,-0.00098831,0.00008925,0.0001
 1272,-0.00094494,-0.00048506,-0.00145610,0.00244316,0.00219404,0.00337
 047,-0.00122573,-0.00114033,-0.00196698,-0.00231549,-0.00162547,-0.001
 81698,0.21704220,0.00330494,-0.00468094,-0.00325738,-0.01309192,0.0098
 0628,0.01816630,0.01083621,-0.00413933,-0.00220730,0.04147500,-0.05065
 875,-0.00817076,0.00796429,-0.22760230,-0.07433457,-0.00521963,-0.0392
 9556,-0.00166813,0.00496513,-0.00043344,0.00120808,-0.00292931,0.00051
 574,0.00020551,0.00344043,-0.00111740,-0.00000204,-0.00123471,0.000028
 84,0.00043435,-0.00121254,0.00075561,-0.00038831,-0.00234451,0.0012035
 2,-0.00305823,0.00098119,-0.00467340,0.00441436,-0.00014179,0.00093880
 ,-0.00101007,0.00036994,0.00256962,-0.00133202,0.01358769,0.58989810,0
 .00340278,0.00094337,0.00457753,0.00185042,-0.00657686,-0.01168674,-0.
 00265884,0.00187521,0.00177964,-0.01172635,0.01893464,0.01228379,0.035
 97749,-0.04473820,-0.13307279,0.00141352,0.03570397,0.00629491,-0.0029
 3890,-0.00034155,-0.00190284,0.00175109,-0.00015242,0.00015935,-0.0021
 2500,0.00049394,-0.00019079,0.00074345,0.00000329,-0.00021861,0.000769
 57,-0.00036309,0.00037108,0.00070220,-0.00023677,0.00280340,0.00049610
 ,0.00302268,-0.00271397,-0.00000164,-0.00065243,0.00066062,-0.00136741
 ,-0.00178786,0.00050419,-0.15789546,0.00155817,0.33016601,-0.00208330,
 0.00134191,0.00159640,0.00718459,-0.00006120,-0.00675045,-0.00522412,0
 .00099940,0.00086507,-0.01244424,0.00856633,0.00293196,0.00951199,-0.0
 3771759,-0.01374209,0.00270162,0.00325740,0.00225927,-0.00184309,-0.00
 195772,0.00000579,0.00225100,0.00069714,-0.00047200,-0.00280653,-0.000
 45300,0.00107619,0.00122305,0.00041834,-0.00084937,0.00077603,0.000274
 52,-0.00030558,0.00079598,0.00062381,0.00092336,-0.00294618,-0.0043870
 7,-0.00353030,0.00172508,0.00198541,0.00261408,0.00183220,0.00294589,0
 .00126862,-0.12278751,0.00254092,0.05498899,0.51755344,-0.00318209,0.0
 0426465,0.00095323,0.01384947,-0.01328108,-0.00389118,-0.00732119,0.00
 325390,-0.00011833,-0.00634606,0.01388612,-0.00029528,-0.02817571,-0.0
 5678086,0.04545297,-0.00006399,-0.00545169,-0.00352929,-0.00629336,-0.
 00120980,0.00016488,0.00539371,0.00011240,-0.00083610,-0.00603067,0.00
 180679,0.00057742,0.00220966,0.00005197,-0.00097734,0.00193945,-0.0011
 1784,0.00024726,0.00275018,-0.00096897,0.00246944,-0.00455713,0.000207
 93,-0.00537190,0.00124791,0.00032903,0.00230296,0.00337745,-0.00050393
 ,0.00152119,0.01251188,-0.16673428,-0.01800462,-0.13308355,1.23725776,
 0.00119516,-0.00325186,-0.00502102,-0.00813939,0.00408731,0.01302295,0
 .00579540,-0.00232608,-0.00182357,0.01580715,-0.00914044,-0.00727792,-
 0.02579220,0.05528185,0.02279444,-0.00019261,-0.01142370,-0.00350149,0
 .00411282,0.00311311,0.00328469,-0.00276560,-0.00068742,-0.00026271,0.
 00330654,-0.00013765,-0.00011523,-0.00122490,-0.00018696,0.00051743,-0
 .00108721,0.00009359,-0.00035227,-0.00190656,0.00025479,-0.00479791,0.
 00009304,-0.00477834,0.00587894,-0.00035110,0.00065587,-0.00166472,0.0
 0124738,0.00210622,-0.00285368,0.05634462,-0.01040545,-0.17218316,-0.2
 8477820,0.27315823,0.77709499,0.00029833,-0.00029561,-0.00052939,-0.00
 152470,0.00056220,0.00185896,0.00110853,-0.00029112,-0.00022156,0.0026
 5804,-0.00255436,-0.00081967,-0.00083633,0.00550904,0.00682626,-0.0000
 9066,-0.00138732,-0.00078186,0.00034487,0.00041636,0.00013644,-0.00041
 715,-0.00014094,0.00007452,0.00053869,0.00023769,-0.00032377,-0.000266
 82,-0.00012821,0.00022324,-0.00013451,-0.00014781,0.00010962,-0.000120
 31,-0.00019096,-0.00022827,0.00045522,0.00076065,0.00069066,-0.0003458
 4,-0.00037899,-0.00050055,-0.00013447,-0.00057719,-0.00023496,0.020649
 92,-0.05095446,0.00477291,-0.13740614,0.05077821,0.02710564,0.08912279
 ,0.00153126,-0.00146094,0.00030805,-0.00643625,0.00566091,0.00079879,0
 .00337014,-0.00139040,0.00022276,0.00360653,-0.00551373,0.00053384,-0.
 00934691,0.01448081,0.00652033,0.00195180,-0.00439493,-0.00104834,0.00
 367456,0.00001280,0.00032846,-0.00285241,0.00025349,0.00034243,0.00306
 754,-0.00112102,-0.00013909,-0.00111893,0.00002809,0.00044730,-0.00102
 672,0.00070007,-0.00022710,-0.00142101,0.00077705,-0.00148219,0.001730
 04,-0.00150505,0.00250905,-0.00035830,0.00029389,-0.00080067,-0.001095
 28,0.00107770,-0.00065326,-0.02589002,-0.11061605,0.02701587,0.0326096
 4,-0.74426276,-0.09950037,-0.05800115,0.93684663,-0.00023741,0.0004472
 9,0.00093410,0.00105730,-0.00010046,-0.00228139,-0.00082698,0.00030529
 ,0.00034050,-0.00287385,0.00054942,0.00130019,0.00887906,-0.00706375,-
 0.00449686,-0.00045341,0.00280448,0.00116815,-0.00074868,-0.00051736,-
 0.00073126,0.00043986,0.00009211,0.00010114,-0.00054481,-0.00000107,-0
 .00003957,0.00019214,0.00003078,-0.00005951,0.00018581,-0.00000691,0.0
 0009247,0.00034729,-0.00006131,0.00096286,0.00001324,0.00088092,-0.001
 17385,0.00005955,-0.00011686,0.00035237,-0.00024832,-0.00038551,0.0005
 1233,0.00699783,0.06552971,0.02056551,0.02457513,-0.12705143,-0.169088
 49,-0.06721627,0.15947826,0.16084884,0.00109294,-0.00025237,-0.0006704
 5,-0.00324089,-0.00174744,0.00234350,0.00229769,-0.00018838,-0.0002882
 7,0.00585313,0.00008874,-0.00291940,-0.00964689,0.01203010,0.00408077,
 0.00045731,-0.00102193,0.00011689,0.00108616,0.00082327,0.00031838,-0.
 00081313,-0.00026364,0.00007533,0.00106325,0.00021458,-0.00036065,-0.0
 0044709,-0.00016281,0.00029643,-0.00029443,-0.00011864,0.00007757,-0.0
 0040281,-0.00021885,-0.00072975,0.00091091,0.00091333,0.00151322,-0.00
 049238,-0.00047256,-0.00087150,-0.00044127,-0.00063418,-0.00048862,-0.
 01243408,-0.01204154,0.06444230,-0.25746517,0.10300105,0.21245894,0.02
 629798,0.05628367,0.02970544,0.24816448,0.00083303,-0.00059925,0.00073
 693,-0.00367027,0.00435519,-0.00162186,0.00133626,-0.00063514,0.000424
 72,-0.00214199,-0.00342672,0.00319648,-0.00115773,-0.00735956,-0.00276
 244,0.00126361,0.00276637,0.00290329,0.00158294,-0.00031154,-0.0002648
 3,-0.00132455,0.00019321,0.00020774,0.00140214,-0.00059685,-0.00010619
 ,-0.00051310,0.00002453,0.00021161,-0.00046398,0.00036460,-0.00007297,
 -0.00066544,0.00041703,-0.00030571,0.00113877,-0.00014788,0.00092242,-
 0.00023800,0.00000575,-0.00038674,-0.00085712,0.00021109,-0.00007285,-
 0.01442741,0.03463708,0.02062231,0.11701589,-0.27480313,-0.18759754,0.
 05716747,-0.08942423,-0.09634438,-0.15330044,0.33547699,-0.00030319,0.
 00119937,0.00241549,0.00253887,-0.00207847,-0.00564793,-0.00189663,0.0
 0086249,0.00079238,-0.00479902,0.00523044,0.00124533,0.00713185,-0.020
 56944,-0.00688980,-0.00041078,0.00291025,0.00119180,-0.00152737,-0.001
 67498,-0.00182577,0.00094821,0.00039945,0.00023309,-0.00117558,-0.0001
 4472,0.00003924,0.00043978,0.00010802,-0.00019509,0.00037878,0.0000891
 1,0.00014396,0.00077436,0.00001516,0.00236321,0.00034483,0.00240422,-0
 .00275956,0.00010063,-0.00031586,0.00075666,-0.00103980,-0.00102403,0.
 00136716,0.06381744,0.01564415,-0.06126917,0.21541459,-0.16509620,-0.4
 5312484,0.02944908,-0.09642290,-0.00919597,-0.31134830,0.25385361,0.53
 060887,0.00007218,0.00396784,0.00375373,0.00143518,-0.00664039,-0.0074
 8875,0.00010293,0.00091312,0.00129352,-0.02215269,-0.00061543,-0.04337
 216,-0.06657551,-0.00703174,-0.01396055,0.00692337,0.00773423,0.024766
 74,0.00099862,0.00094124,0.00230771,0.00005167,-0.00008466,-0.00046572
 ,0.00015982,-0.00015701,0.00020636,0.00002432,0.00007121,-0.00009486,-
 0.00013622,0.00014198,-0.00023864,0.00020386,-0.00039673,-0.00119390,-
 0.00236730,-0.00072258,-0.00090086,0.00017449,0.00031649,0.00032288,0.
 00055912,0.00038297,-0.00017916,0.00431217,0.00329827,0.00304299,-0.00
 016772,-0.00157672,-0.00071668,-0.00008086,0.00139853,0.00032191,-0.00
 130016,-0.00211857,0.00127826,0.08119663,0.00366480,-0.00600435,-0.001
 70283,0.00095179,0.00339803,0.00205316,-0.00104676,-0.00045420,-0.0006
 8790,0.00503912,0.00394486,0.01166737,-0.00893325,-0.07670287,-0.06427
 470,0.00171857,0.00812358,0.01615331,0.00083200,0.00036613,0.00072344,
 -0.00039426,-0.00006484,-0.00012584,0.00042415,-0.00013365,-0.00006533
 ,-0.00015623,-0.00000606,0.00006981,-0.00016023,0.00009926,-0.00005850
 ,0.00002372,-0.00037879,-0.00028931,0.00054130,0.00214384,-0.00000259,
 -0.00031072,-0.00055599,-0.00048685,-0.00076788,-0.00100070,0.00014835
 ,-0.00298933,-0.03031387,-0.04092242,0.00448202,0.00165206,-0.00858834
 ,-0.00054758,0.00069163,0.00158821,-0.00274379,-0.00026827,0.00451305,
 0.00287821,0.09626867,0.00526404,-0.00266709,0.00193781,-0.00228700,-0
 .00336549,-0.00318326,0.00108021,0.00051160,0.00072701,-0.00809325,0.0
 0098920,-0.00785516,-0.03121612,-0.07356466,-0.37541279,0.00026390,-0.
 00374307,-0.01246442,0.00055619,-0.00003640,-0.00143580,-0.00009601,-0
 .00006202,0.00006240,0.00025353,0.00006780,-0.00011201,-0.00010542,-0.
 00004703,0.00007941,-0.00005991,-0.00004332,0.00008741,-0.00124282,0.0
 0020438,0.00036143,0.00068869,0.00022198,0.00187829,-0.00030530,-0.000
 32265,-0.00068220,-0.00079859,0.00011802,-0.00061892,0.00228685,-0.002
 98333,0.00510585,0.00094748,-0.00233683,-0.00179520,-0.00036644,0.0007
 9954,0.00029076,0.00248548,0.00617196,-0.00051176,0.02939343,0.0789190
 7,0.39323370,0.00051833,0.00107680,0.00040202,-0.00234407,-0.00147214,
 -0.00045672,0.00056603,0.00010218,0.00038515,0.00176719,0.00102009,-0.
 00101865,0.00461624,-0.02644850,-0.00364076,-0.06549735,0.02717867,0.0
 0087447,-0.00477504,0.04302372,0.00110254,0.00275823,-0.00027293,-0.00
 067361,-0.00046914,0.00100274,-0.00152646,0.00001722,-0.00027521,0.000
 39417,-0.00058438,-0.00091962,0.00087968,0.00206204,-0.00137894,0.0019
 0625,0.00080017,0.00097638,0.00007657,-0.00019786,-0.00019739,0.000087
 95,-0.00007921,-0.00072324,-0.00040489,-0.00463625,-0.00469567,0.00569
 795,0.00115740,-0.00023670,-0.00246403,-0.00039002,-0.00148975,0.00067
 414,-0.00055824,0.00024962,0.00082093,0.00065633,0.00079263,-0.0002877
 6,0.07026828,0.00131494,0.00035638,-0.00033087,-0.00182349,-0.00031450
 ,-0.00022109,0.00045746,0.00001154,0.00026486,0.00071624,0.00191714,-0
 .00077621,0.00293754,-0.01448010,-0.00175680,0.02719923,-0.35563345,-0
 .00738449,0.00159384,-0.00862381,-0.00048765,-0.00072500,0.00088948,0.
 00015192,0.00078812,-0.00002642,0.00017098,-0.00006338,-0.00001496,-0.
 00004655,-0.00028731,0.00027026,-0.00023254,-0.00061966,0.00151600,-0.
 00045162,-0.00017010,-0.00066290,0.00061178,0.00001428,0.00010802,-0.0
 0011568,0.00018372,0.00047491,-0.00011350,-0.00207496,-0.00113365,0.00
 286542,0.00077341,0.00052175,-0.00150130,-0.00017612,-0.00050077,0.000
 25447,-0.00032737,0.00013987,0.00053452,-0.00022865,0.00045129,0.00016
 152,-0.03074954,0.38117924,-0.00074933,-0.00098328,-0.00090565,0.00188
 299,0.00112070,0.00183521,-0.00094216,-0.00003497,-0.00060883,-0.00153
 859,-0.00131500,0.00023791,-0.00479572,0.02322076,0.00161609,0.0027721
 9,-0.01306449,-0.06146958,-0.00261855,0.01354617,-0.00075309,0.0012308
 5,-0.00079343,0.00007864,-0.00002111,0.00006491,-0.00027669,0.00002983
 ,0.00006063,0.00000209,-0.00029035,-0.00001161,-0.00000974,0.00099645,
 0.00026687,0.00127263,0.00031672,0.00124557,-0.00067508,-0.00000806,-0
 .00023270,0.00022177,-0.00020259,-0.00069642,0.00002670,0.00429599,0.0
 0330739,-0.00379146,-0.00037418,0.00063189,0.00230738,0.00022114,0.000
 95835,-0.00056588,0.00013435,-0.00029423,-0.00046525,-0.00066948,-0.00
 045360,0.00040362,-0.00166862,0.00813573,0.05843948,-0.00067894,-0.000
 27869,-0.00059666,0.00096257,0.00100878,0.00090196,-0.00033746,-0.0001
 8140,-0.00017809,0.00222509,-0.00007240,-0.00115053,0.00449070,0.00993
 697,0.03129621,-0.06969198,-0.01166702,-0.03874918,0.00008513,-0.01360
 218,-0.03137278,0.00074821,-0.00034709,-0.00008595,-0.00045858,0.00083
 790,-0.00024930,0.00013804,-0.00018300,0.00005435,0.00025367,-0.000458
 57,0.00047971,-0.00698127,0.00280843,-0.00734017,-0.00142546,-0.003818
 54,0.00252040,-0.00035289,0.00046321,-0.00177291,0.00051387,0.00122154
 ,-0.00026258,0.00099635,0.00142766,-0.00150522,-0.00060601,0.00100709,
 0.00069188,0.00013077,-0.00028700,-0.00015667,-0.00009814,-0.00101455,
 -0.00023110,-0.00391334,-0.00317102,0.00145678,0.00049148,0.00066069,0
 .00415121,0.07264243,0.00051379,0.00044113,0.00000685,-0.00027453,-0.0
 0044951,-0.00083566,0.00029609,-0.00005459,0.00024654,0.00094928,-0.00
 033192,-0.00063971,0.00236098,0.00474411,0.01923362,-0.01267299,-0.091
 85505,-0.09202638,0.00032945,0.00257713,0.00989439,-0.00063989,0.00034
 778,-0.00000873,-0.00027143,0.00015310,-0.00011172,-0.00004196,-0.0000
 7642,0.00012175,0.00011513,-0.00024491,0.00016562,0.00252200,0.0008226
 0,0.00151773,-0.00011372,0.00062352,-0.00014902,0.00003683,-0.00009212
 ,0.00026995,0.00007498,-0.00008534,-0.00008999,0.00066004,0.00178185,0
 .00024226,-0.00066533,0.00035678,0.00101701,0.00016962,0.00003040,-0.0
 0029606,0.00013422,-0.00069539,-0.00043653,-0.00248091,-0.00118095,0.0
 0109081,-0.00560345,-0.00739104,-0.03481407,0.01528777,0.09052119,0.00
 025821,0.00024734,0.00040896,-0.00037490,-0.00064124,-0.00040090,0.000
 15233,0.00010725,0.00008539,-0.00067906,0.00040140,0.00215039,-0.00302
 328,-0.00682530,-0.02383142,-0.04029448,-0.08777952,-0.32195466,0.0000
 9578,-0.00367616,-0.00926349,0.00217753,0.00036744,0.00083790,-0.00095
 081,0.00044730,0.00051736,0.00013014,-0.00001591,-0.00014451,0.0002178
 3,-0.00021919,0.00014798,-0.00147527,0.00111499,-0.00052482,0.00005088
 ,-0.00079931,0.00074317,-0.00007987,0.00007930,-0.00031684,-0.00004406
 ,0.00025117,0.00003009,-0.00093179,-0.00176351,0.00181692,0.00112225,0
 .00024882,-0.00119358,-0.00020666,-0.00004011,0.00021407,-0.00043976,0
 .00056465,0.00086363,0.00263740,0.00191509,-0.00008262,0.00054153,0.00
 005792,0.00303910,0.04138138,0.09562413,0.34659323,-0.00026176,-0.0002
 7483,-0.00001015,0.00052566,0.00037909,0.00019747,-0.00009312,-0.00006
 604,-0.00009906,0.00030669,-0.00071059,0.00008825,0.00050830,0.0028170
 8,-0.00035121,-0.00087419,0.03344005,-0.00146848,-0.07656283,0.0647635
 0,-0.00513278,-0.00193766,-0.03213967,0.01180787,0.00500569,-0.0042506
 8,0.00122018,-0.00018406,0.00121363,-0.00061015,-0.00587716,0.00145822
 ,-0.00064021,0.00304044,-0.01266297,-0.00694593,0.00161012,-0.00237403
 ,0.00120500,-0.00035020,-0.00002256,-0.00041380,-0.00017456,0.00078304
 ,-0.00015226,-0.00022870,-0.00032555,0.00016706,-0.00093237,-0.0011989
 0,0.00125990,0.00014266,0.00010003,-0.00014228,0.00041083,-0.00009657,
 -0.00070585,-0.00017688,-0.00012725,0.00018204,-0.00614738,0.00060610,
 -0.00215296,0.00086576,-0.00068595,-0.00026534,0.08138474,-0.00011882,
 0.00002381,0.00005119,0.00035358,-0.00017717,-0.00007831,-0.00014459,0
 .00005583,-0.00000782,-0.00016044,-0.00002268,0.00002089,0.00096002,0.
 00009188,-0.00009282,0.00236672,0.00040726,0.00082899,0.04712689,-0.37
 914773,0.01839001,-0.00332489,-0.00803445,0.00875498,0.00095697,-0.003
 51670,0.00289470,0.00037255,0.00090303,-0.00126870,0.00314971,0.002630
 57,-0.00191919,0.00068030,-0.01520205,-0.00996176,-0.00091604,-0.00507
 498,0.00174358,0.00018861,0.00082347,-0.00003768,0.00147336,0.00205801
 ,0.00668269,-0.00177878,-0.00073647,0.00049507,-0.00020655,0.00141321,
 -0.00024255,0.00017059,-0.00066359,-0.00001585,0.00000497,-0.00032376,
 -0.00000070,0.00000929,-0.00007483,-0.00008398,-0.00095975,0.00094573,
 0.00013482,0.00042142,0.00005763,0.00033346,-0.05062514,0.40356400,-0.
 00003959,-0.00001598,0.00003869,0.00010036,0.00002339,-0.00003643,-0.0
 0000154,0.00000070,-0.00000054,-0.00006629,-0.00009066,0.00001987,0.00
 015503,-0.00001535,0.00015774,-0.00142817,0.00941342,0.00262270,-0.005
 62697,0.02762233,-0.06231424,0.00811634,0.03420876,-0.01022959,-0.0055
 0650,0.00295800,-0.00104096,0.00097956,-0.00047717,-0.00024058,0.00016
 290,-0.00186233,0.00157745,0.00026553,-0.04356957,-0.01389052,-0.00053
 578,-0.00945089,0.00470762,0.00086094,0.00201916,0.00001548,0.00040950
 ,0.00580523,-0.00587607,-0.00002126,0.00011305,-0.00005927,0.00021300,
 -0.00021980,0.00015495,-0.00003907,0.00005098,-0.00005052,0.00006813,0
 .00001402,-0.00013566,-0.00004419,-0.00009265,-0.00001354,-0.00170188,
 0.00020919,0.00004062,0.00071726,-0.00002279,0.00026467,0.00296268,-0.
 02662103,0.08428814||-0.00000023,-0.00001417,0.00000163,0.00004039,0.0
 0001084,-0.00002568,-0.00003491,0.00000634,0.00000100,-0.00003461,-0.0
 0002270,0.00002713,0.00002247,0.00001344,-0.00000641,-0.00000707,0.000
 01514,-0.00001106,0.00001172,-0.00000596,0.00001049,0.00001889,-0.0000
 0350,-0.00001598,-0.00001629,0.00001058,0.00000605,0.00000739,0.000002
 80,-0.00001387,-0.00001173,-0.00000195,0.00000471,-0.00001186,0.000002
 10,-0.00000346,-0.00004018,-0.00008627,-0.00000517,0.00002715,0.000031
 66,0.00002144,0.00001875,0.00004407,-0.00000553,0.00000017,0.00000133,
 0.00000049,0.00000580,-0.00000014,-0.00000940,0.00000029,0.00000262,-0
 .00000361,-0.00000410,0.00001040,0.00000398,-0.00000389,-0.00000642,0.
 00000435,0.00000591,-0.00000203,0.00000763,0.00000736,-0.00000499,0.00
 000784,-0.00000142,-0.00000319,0.00000343|||@
 The archive entry for this job was punched.


 "THE ACADEMIC HIERARCHY"


 THE PRESIDENT:
   LEAPS TALL BUILDINGS IN A SINGLE BOUND,
     IS MORE POWERFUL THAN A LOCOMOTIVE,
       IS FASTER THAN A SPEEDING BULLET,
         WALKS ON WATER,
           GIVES POLICY TO GOD.

 THE VICE PRESIDENT FOR ACADEMIC AFFAIRS:
   LEAPS SHORT BUILDINGS IN A SINGLE BOUND,
     IS MORE POWERFUL THAN A SWITCH ENGINE,
       IS JUST AS FAST AS A SPEEDING BULLET,
         WALKS ON WATER IF SEA IS CALM,
           TALKS WITH GOD.

 PROFESSOR:
   LEAPS SHORT BUILDINGS WITH A RUNNING START AND FAVORABLE WINDS,
     IS ALMOST AS POWERFUL AS A SWITCH ENGINE,
       CAN FIRE A SPEEDING BULLET,
         WALKS ON WATER IN AN INDOOR SWIMMING POOL,
          TALKS WITH GOD IF SPECIAL REQUEST IS APPROVED.

 ASSOCIATE PROFESSOR:
   BARELY CLEARS A QUONSET HUT,
     LOSES TUG OF WAR WITH LOCOMOTIVE,
       MISFIRES FREQUENTLY,
         SWIMS WELL,
           IS OCCASIONALLY ADDRESSED BY GOD.

 ASSISTANT PROFESSOR:
   MAKES HIGH MARKS ON WALLS WHEN TRYING TO LEAP TALL BUILDINGS,
     IS RUN OVER BY LOCOMOTIVES,
       CAN SOMETIMES HANDLE A GUN WITHOUT INFLICTING SELF INJURY,
         DOG PADDLES,
           TALKS TO ANIMALS.

 GRADUATE STUDENT:
   RUNS INTO BUILDINGS,
     RECOGNIZES LOCOMOTIVES TWO OUT OF THREE TIMES,
       IS NOT ISSUED AMMUNITION,
         CAN STAY AFLOAT WITH A LIFE JACKET,
           TALKS TO WALLS.

 UNDERGRADUATE AND WORK STUDY STUDENT:
   FALLS OVER DOORSTEP WHEN TRYING TO ENTER BUILDINGS,
     SAYS, "LOOK AT THE CHOO-CHOO,"
       WETS HIMSELF WITH A WATER PISTOL,
        PLAYS IN MUD PUDDLES,
          MUMBLES TO HIMSELF.

 DEPARTMENT SECRETARY:
   LIFTS TALL BUILDINGS AND WALKS UNDER THEM,
     KICKS LOCOMOTIVES OFF THE TRACKS,
       CATCHES SPEEDING BULLETS IN HER TEETH AND EATS THEM,
         FREEZES WATER WITH A SINGLE GLANCE,
           IS GOD.
 Job cpu time:       0 days  0 hours  1 minutes 23.0 seconds.
 Elapsed time:       0 days  0 hours  1 minutes 20.8 seconds.
 File lengths (MBytes):  RWF=    251 Int=      0 D2E=      0 Chk=      8 Scr=      1
 Normal termination of Gaussian 16 at Tue Jun 11 17:12:09 2024.
