 Entering Link 1 = C:\G16W\l1.exe PID=     17752.
  
 Copyright (c) 1988-2019, Gaussian, Inc.  All Rights Reserved.
  
 This is part of the Gaussian(R) 16 program.  It is based on
 the Gaussian(R) 09 system (copyright 2009, Gaussian, Inc.),
 the Gaussian(R) 03 system (copyright 2003, Gaussian, Inc.),
 the Gaussian(R) 98 system (copyright 1998, Gaussian, Inc.),
 the Gaussian(R) 94 system (copyright 1995, Gaussian, Inc.),
 the Gaussian 92(TM) system (copyright 1992, Gaussian, Inc.),
 the Gaussian 90(TM) system (copyright 1990, Gaussian, Inc.),
 the Gaussian 88(TM) system (copyright 1988, Gaussian, Inc.),
 the Gaussian 86(TM) system (copyright 1986, Carnegie Mellon
 University), and the Gaussian 82(TM) system (copyright 1983,
 Carnegie Mellon University). Gaussian is a federally registered
 trademark of Gaussian, Inc.
  
 This software contains proprietary and confidential information,
 including trade secrets, belonging to Gaussian, Inc.
  
 This software is provided under written license and may be
 used, copied, transmitted, or stored only in accord with that
 written license.
  
 The following legend is applicable only to US Government
 contracts under FAR:
  
                    RESTRICTED RIGHTS LEGEND
  
 Use, reproduction and disclosure by the US Government is
 subject to restrictions as set forth in subparagraphs (a)
 and (c) of the Commercial Computer Software - Restricted
 Rights clause in FAR 52.227-19.
  
 Gaussian, Inc.
 340 Quinnipiac St., Bldg. 40, Wallingford CT 06492
  
  
 ---------------------------------------------------------------
 Warning -- This program may not be used in any manner that
 competes with the business of Gaussian, Inc. or will provide
 assistance to any competitor of Gaussian, Inc.  The licensee
 of this program is prohibited from giving any competitor of
 Gaussian, Inc. access to this program.  By using this program,
 the user acknowledges that Gaussian, Inc. is engaged in the
 business of creating and licensing software in the field of
 computational chemistry and represents and warrants to the
 licensee that it is not a competitor of Gaussian, Inc. and that
 it will not use this program in any manner prohibited above.
 ---------------------------------------------------------------
  

 Cite this work as:
 Gaussian 16, Revision C.01,
 M. J. Frisch, G. W. Trucks, H. B. Schlegel, G. E. Scuseria, 
 M. A. Robb, J. R. Cheeseman, G. Scalmani, V. Barone, 
 G. A. Petersson, H. Nakatsuji, X. Li, M. Caricato, A. V. Marenich, 
 J. Bloino, B. G. Janesko, R. Gomperts, B. Mennucci, H. P. Hratchian, 
 J. V. Ortiz, A. F. Izmaylov, J. L. Sonnenberg, D. Williams-Young, 
 F. Ding, F. Lipparini, F. Egidi, J. Goings, B. Peng, A. Petrone, 
 T. Henderson, D. Ranasinghe, V. G. Zakrzewski, J. Gao, N. Rega, 
 G. Zheng, W. Liang, M. Hada, M. Ehara, K. Toyota, R. Fukuda, 
 J. Hasegawa, M. Ishida, T. Nakajima, Y. Honda, O. Kitao, H. Nakai, 
 T. Vreven, K. Throssell, J. A. Montgomery, Jr., J. E. Peralta, 
 F. Ogliaro, M. J. Bearpark, J. J. Heyd, E. N. Brothers, K. N. Kudin, 
 V. N. Staroverov, T. A. Keith, R. Kobayashi, J. Normand, 
 K. Raghavachari, A. P. Rendell, J. C. Burant, S. S. Iyengar, 
 J. Tomasi, M. Cossi, J. M. Millam, M. Klene, C. Adamo, R. Cammi, 
 J. W. Ochterski, R. L. Martin, K. Morokuma, O. Farkas, 
 J. B. Foresman, and D. J. Fox, Gaussian, Inc., Wallingford CT, 2019.
 
 ******************************************
 Gaussian 16:  EM64W-G16RevC.01 30-May-2019
                11-Jun-2024 
 ******************************************
 %nprocshared=24
 Will use up to   24 processors via shared memory.
 %mem=120GB
 ----------------------
 # HF/6-31G(d) Opt Freq
 ----------------------
 1/18=20,19=15,38=1/1,3;
 2/9=110,12=2,17=6,18=5,40=1/2;
 3/5=1,6=6,7=1,11=9,25=1,30=1,71=1/1,2,3;
 4//1;
 5/5=2,38=5/2;
 6/7=2,8=2,9=2,10=2,28=1/1;
 7//1,2,3,16;
 1/18=20,19=15/3(2);
 2/9=110/2;
 99//99;
 2/9=110/2;
 3/5=1,6=6,7=1,11=9,25=1,30=1,71=1/1,2,3;
 4/5=5,16=3,69=1/1;
 5/5=2,38=5/2;
 7//1,2,3,16;
 1/18=20,19=15/3(-5);
 2/9=110/2;
 6/7=2,8=2,9=2,10=2,19=2,28=1/1;
 99/9=1/99;
 ----------------------------------------------------------------------
 O=[N+1]([O-1])OC(CC(O[N+1]([O-1])[O-1])O[N+1]([O-1])=O)O[N+1]([O-1])=O
  geometry optimization
 ----------------------------------------------------------------------
 Symbolic Z-matrix:
 Charge =  0 Multiplicity = 1
 O                    -1.80341   1.6854    2.04835 
 N                    -2.72598   0.90637   1.80984 
 O                    -3.82008   0.7857    2.35344 
 O                    -2.50277  -0.06694   0.81061 
 C                    -1.27906   0.12629   0.09935 
 C                    -0.16997  -0.63283   0.85475 
 C                     1.22063  -0.56366   0.19571 
 O                     1.61316   0.80339   0.17714 
 N                     2.04362   1.14139  -1.17065 
 O                     0.85596   1.44588  -1.89654 
 O                     2.78698   2.34267  -1.06184 
 O                     2.06514  -1.34603   1.0474 
 N                     3.26405  -1.74212   0.4216 
 O                     3.96281  -2.45388   1.13521 
 O                     3.44739  -1.33741  -0.72607 
 O                    -1.35922  -0.48881  -1.19162 
 N                    -2.18611   0.23295  -2.08508 
 O                    -2.74904   1.2342   -1.64388 
 O                    -2.24146  -0.28705  -3.19632 
 H                    -1.00165   1.18205  -0.01806 
 H                    -0.45798  -1.68887   0.95459 
 H                    -0.09903  -0.26013   1.88463 
 H                     1.13601  -1.01856  -0.80256 
 

 GradGradGradGradGradGradGradGradGradGradGradGradGradGradGradGradGradGrad
 Berny optimization.
 Initialization pass.
                           ----------------------------
                           !    Initial Parameters    !
                           ! (Angstroms and Degrees)  !
 --------------------------                            --------------------------
 ! Name  Definition              Value          Derivative Info.                !
 --------------------------------------------------------------------------------
 ! R1    R(1,2)                  1.2308         estimate D2E/DX2                !
 ! R2    R(2,3)                  1.2276         estimate D2E/DX2                !
 ! R3    R(2,4)                  1.4127         estimate D2E/DX2                !
 ! R4    R(4,5)                  1.4285         estimate D2E/DX2                !
 ! R5    R(5,6)                  1.5417         estimate D2E/DX2                !
 ! R6    R(5,16)                 1.4323         estimate D2E/DX2                !
 ! R7    R(5,20)                 1.0979         estimate D2E/DX2                !
 ! R8    R(6,7)                  1.5404         estimate D2E/DX2                !
 ! R9    R(6,21)                 1.0992         estimate D2E/DX2                !
 ! R10   R(6,22)                 1.0975         estimate D2E/DX2                !
 ! R11   R(7,8)                  1.4224         estimate D2E/DX2                !
 ! R12   R(7,12)                 1.432          estimate D2E/DX2                !
 ! R13   R(7,23)                 1.1003         estimate D2E/DX2                !
 ! R14   R(8,9)                  1.4547         estimate D2E/DX2                !
 ! R15   R(9,10)                 1.4248         estimate D2E/DX2                !
 ! R16   R(9,11)                 1.4169         estimate D2E/DX2                !
 ! R17   R(12,13)                1.4092         estimate D2E/DX2                !
 ! R18   R(13,14)                1.2264         estimate D2E/DX2                !
 ! R19   R(13,15)                1.2307         estimate D2E/DX2                !
 ! R20   R(16,17)                1.4153         estimate D2E/DX2                !
 ! R21   R(17,18)                1.2305         estimate D2E/DX2                !
 ! R22   R(17,19)                1.2281         estimate D2E/DX2                !
 ! A1    A(1,2,3)              130.1225         estimate D2E/DX2                !
 ! A2    A(1,2,4)              117.0468         estimate D2E/DX2                !
 ! A3    A(3,2,4)              112.7251         estimate D2E/DX2                !
 ! A4    A(2,4,5)              113.2252         estimate D2E/DX2                !
 ! A5    A(4,5,6)              107.799          estimate D2E/DX2                !
 ! A6    A(4,5,16)             110.0445         estimate D2E/DX2                !
 ! A7    A(4,5,20)             113.5633         estimate D2E/DX2                !
 ! A8    A(6,5,16)             105.6904         estimate D2E/DX2                !
 ! A9    A(6,5,20)             110.1273         estimate D2E/DX2                !
 ! A10   A(16,5,20)            109.313          estimate D2E/DX2                !
 ! A11   A(5,6,7)              114.6878         estimate D2E/DX2                !
 ! A12   A(5,6,21)             109.2126         estimate D2E/DX2                !
 ! A13   A(5,6,22)             109.8196         estimate D2E/DX2                !
 ! A14   A(7,6,21)             108.5751         estimate D2E/DX2                !
 ! A15   A(7,6,22)             109.139          estimate D2E/DX2                !
 ! A16   A(21,6,22)            104.9492         estimate D2E/DX2                !
 ! A17   A(6,7,8)              107.3294         estimate D2E/DX2                !
 ! A18   A(6,7,12)             104.678          estimate D2E/DX2                !
 ! A19   A(6,7,23)             107.4677         estimate D2E/DX2                !
 ! A20   A(8,7,12)             111.7217         estimate D2E/DX2                !
 ! A21   A(8,7,23)             113.9998         estimate D2E/DX2                !
 ! A22   A(12,7,23)            111.0435         estimate D2E/DX2                !
 ! A23   A(7,8,9)              108.4855         estimate D2E/DX2                !
 ! A24   A(8,9,10)             105.9631         estimate D2E/DX2                !
 ! A25   A(8,9,11)             106.3254         estimate D2E/DX2                !
 ! A26   A(10,9,11)            107.173          estimate D2E/DX2                !
 ! A27   A(7,12,13)            113.0273         estimate D2E/DX2                !
 ! A28   A(12,13,14)           112.9208         estimate D2E/DX2                !
 ! A29   A(12,13,15)           116.6434         estimate D2E/DX2                !
 ! A30   A(14,13,15)           130.4355         estimate D2E/DX2                !
 ! A31   A(5,16,17)            112.5016         estimate D2E/DX2                !
 ! A32   A(16,17,18)           117.1243         estimate D2E/DX2                !
 ! A33   A(16,17,19)           112.4339         estimate D2E/DX2                !
 ! A34   A(18,17,19)           130.4169         estimate D2E/DX2                !
 ! D1    D(1,2,3,4)           -176.091          estimate D2E/DX2                !
 ! D2    D(1,2,4,5)             -7.9815         estimate D2E/DX2                !
 ! D3    D(3,2,4,5)            175.3739         estimate D2E/DX2                !
 ! D4    D(2,4,5,6)             89.0698         estimate D2E/DX2                !
 ! D5    D(2,4,5,16)          -156.1282         estimate D2E/DX2                !
 ! D6    D(2,4,5,20)           -33.2265         estimate D2E/DX2                !
 ! D7    D(4,5,6,7)            178.2999         estimate D2E/DX2                !
 ! D8    D(4,5,6,21)            56.1954         estimate D2E/DX2                !
 ! D9    D(4,5,6,22)           -58.3853         estimate D2E/DX2                !
 ! D10   D(16,5,6,7)            60.648          estimate D2E/DX2                !
 ! D11   D(16,5,6,21)          -61.4565         estimate D2E/DX2                !
 ! D12   D(16,5,6,22)         -176.0371         estimate D2E/DX2                !
 ! D13   D(20,5,6,7)           -57.3099         estimate D2E/DX2                !
 ! D14   D(20,5,6,21)         -179.4144         estimate D2E/DX2                !
 ! D15   D(20,5,6,22)           66.005          estimate D2E/DX2                !
 ! D16   D(4,5,16,17)           73.3713         estimate D2E/DX2                !
 ! D17   D(6,5,16,17)         -170.4947         estimate D2E/DX2                !
 ! D18   D(20,5,16,17)         -51.9931         estimate D2E/DX2                !
 ! D19   D(5,6,7,8)             62.1269         estimate D2E/DX2                !
 ! D20   D(5,6,7,12)          -179.0237         estimate D2E/DX2                !
 ! D21   D(5,6,7,23)           -60.8882         estimate D2E/DX2                !
 ! D22   D(21,6,7,8)          -175.4231         estimate D2E/DX2                !
 ! D23   D(21,6,7,12)          -56.5738         estimate D2E/DX2                !
 ! D24   D(21,6,7,23)           61.5618         estimate D2E/DX2                !
 ! D25   D(22,6,7,8)           -61.5516         estimate D2E/DX2                !
 ! D26   D(22,6,7,12)           57.2977         estimate D2E/DX2                !
 ! D27   D(22,6,7,23)          175.4332         estimate D2E/DX2                !
 ! D28   D(6,7,8,9)           -129.7999         estimate D2E/DX2                !
 ! D29   D(12,7,8,9)           115.9933         estimate D2E/DX2                !
 ! D30   D(23,7,8,9)           -10.9105         estimate D2E/DX2                !
 ! D31   D(6,7,12,13)          161.9084         estimate D2E/DX2                !
 ! D32   D(8,7,12,13)          -82.2554         estimate D2E/DX2                !
 ! D33   D(23,7,12,13)          46.2349         estimate D2E/DX2                !
 ! D34   D(7,8,9,10)            83.376          estimate D2E/DX2                !
 ! D35   D(7,8,9,11)          -162.809          estimate D2E/DX2                !
 ! D36   D(8,9,10,11)          113.229          estimate D2E/DX2                !
 ! D37   D(7,12,13,14)        -177.4199         estimate D2E/DX2                !
 ! D38   D(7,12,13,15)           2.4164         estimate D2E/DX2                !
 ! D39   D(12,13,14,15)        179.8078         estimate D2E/DX2                !
 ! D40   D(5,16,17,18)          -2.4226         estimate D2E/DX2                !
 ! D41   D(5,16,17,19)         179.201          estimate D2E/DX2                !
 ! D42   D(16,17,18,19)       -178.0287         estimate D2E/DX2                !
 --------------------------------------------------------------------------------
 Trust Radius=3.00D-01 FncErr=1.00D-07 GrdErr=1.00D-07 EigMax=2.50D+02 EigMin=1.00D-04
 Number of steps in this run=    108 maximum allowed number of steps=    138.
 GradGradGradGradGradGradGradGradGradGradGradGradGradGradGradGradGradGrad

                          Input orientation:                          
 ---------------------------------------------------------------------
 Center     Atomic      Atomic             Coordinates (Angstroms)
 Number     Number       Type             X           Y           Z
 ---------------------------------------------------------------------
      1          8           0       -1.803414    1.685400    2.048352
      2          7           0       -2.725983    0.906372    1.809839
      3          8           0       -3.820079    0.785703    2.353442
      4          8           0       -2.502765   -0.066936    0.810610
      5          6           0       -1.279059    0.126286    0.099350
      6          6           0       -0.169972   -0.632831    0.854751
      7          6           0        1.220630   -0.563656    0.195707
      8          8           0        1.613159    0.803390    0.177139
      9          7           0        2.043619    1.141387   -1.170655
     10          8           0        0.855964    1.445883   -1.896538
     11          8           0        2.786985    2.342668   -1.061837
     12          8           0        2.065135   -1.346027    1.047400
     13          7           0        3.264053   -1.742119    0.421599
     14          8           0        3.962814   -2.453878    1.135208
     15          8           0        3.447392   -1.337411   -0.726071
     16          8           0       -1.359218   -0.488808   -1.191621
     17          7           0       -2.186113    0.232952   -2.085078
     18          8           0       -2.749038    1.234196   -1.643884
     19          8           0       -2.241463   -0.287045   -3.196320
     20          1           0       -1.001647    1.182046   -0.018056
     21          1           0       -0.457979   -1.688874    0.954590
     22          1           0       -0.099032   -0.260132    1.884628
     23          1           0        1.136008   -1.018564   -0.802556
 ---------------------------------------------------------------------
                    Distance matrix (angstroms):
                    1          2          3          4          5
     1  O    0.000000
     2  N    1.230815   0.000000
     3  O    2.229231   1.227645   0.000000
     4  O    2.256497   1.412661   2.200600   0.000000
     5  C    2.550371   2.372318   3.460137   1.428525   0.000000
     6  C    3.076850   3.132814   4.193041   2.400856   1.541740
     7  C    4.199451   4.510228   5.646711   3.806378   2.594947
     8  O    3.994039   4.637291   5.852921   4.254361   2.971438
     9  N    5.045554   5.629181   6.850454   5.104416   3.699125
    10  O    4.763592   5.182532   6.353231   4.571469   3.206747
    11  O    5.583640   6.379834   7.598787   6.106857   4.774244
    12  O    5.015687   5.348777   6.394197   4.749511   3.774935
    13  N    6.330357   6.694941   7.765747   6.017787   4.922869
    14  O    7.156594   7.515744   8.517770   6.899751   5.933589
    15  O    6.663766   7.041020   8.173564   6.275338   5.016280
    16  O    3.927074   3.580968   4.499743   2.344057   1.432261
    17  N    4.397875   3.989402   4.761916   2.928346   2.367668
    18  O    3.838020   3.469323   4.162558   2.788931   2.535186
    19  O    5.620410   5.169200   5.868788   4.021469   3.458107
    20  H    2.272936   2.527950   3.704680   2.121320   1.097893
    21  H    3.793709   3.551139   4.402730   2.613917   2.168044
    22  H    2.591682   2.875272   3.893551   2.639843   2.174626
    23  H    4.907066   5.044300   6.146422   4.092502   2.820756
                    6          7          8          9         10
     6  C    0.000000
     7  C    1.540422   0.000000
     8  O    2.387770   1.422406   0.000000
     9  N    3.485700   2.334829   1.454677   0.000000
    10  O    3.597665   2.923820   2.299191   1.424833   0.000000
    11  O    4.611995   3.532931   2.298327   1.416866   2.286873
    12  O    2.354032   1.432016   2.362547   3.332784   4.233630
    13  N    3.634648   2.369678   3.043818   3.512739   4.619092
    14  O    4.524908   3.460516   4.128991   4.682546   5.835421
    15  O    4.010082   2.531174   2.960275   2.883170   3.978972
    16  O    2.371220   2.930170   3.518281   3.773231   3.024396
    17  N    3.668378   4.176418   4.458418   4.421770   3.280393
    18  O    4.047289   4.730184   4.746629   4.816858   3.620039
    19  O    4.563093   4.854735   5.237116   4.950320   3.779752
    20  H    2.178819   2.834023   2.649281   3.256345   2.654999
    21  H    1.099155   2.158645   3.332479   4.334170   4.436449
    22  H    1.097535   2.164738   2.641628   3.986222   4.256727
    23  H    2.145004   1.100287   2.122968   2.371633   2.710853
                   11         12         13         14         15
    11  O    0.000000
    12  O    4.310036   0.000000
    13  N    4.371917   1.409226   0.000000
    14  O    5.405223   2.199143   1.226420   0.000000
    15  O    3.753912   2.248535   1.230670   2.230811   0.000000
    16  O    5.022459   4.180219   5.054493   6.131856   4.903097
    17  N    5.498147   5.511687   6.315745   7.443024   6.004108
    18  O    5.675829   6.089074   7.020109   8.147036   6.771358
    19  O    6.062730   6.138191   6.746650   7.870855   6.290348
    20  H    4.097591   4.114790   5.190397   6.260657   5.161675
    21  H    5.554196   2.547992   3.760377   4.490130   4.266154
    22  H    4.877019   2.561980   3.955639   4.676831   4.533587
    23  H    3.753775   2.095911   2.559426   3.715627   2.334525
                   16         17         18         19         20
    16  O    0.000000
    17  N    1.415260   0.000000
    18  O    2.259400   1.230458   0.000000
    19  O    2.199519   1.228137   2.232009   0.000000
    20  H    2.072888   2.564433   2.387345   3.714396   0.000000
    21  H    2.618895   3.989918   4.532699   4.730327   3.079577
    22  H    3.332217   4.511940   4.658964   5.514233   2.552410
    23  H    2.580342   3.774605   4.569064   4.203872   3.166653
                   21         22         23
    21  H    0.000000
    22  H    1.742158   0.000000
    23  H    2.465294   3.053114   0.000000
 Stoichiometry    C3H4N4O12
 Framework group  C1[X(C3H4N4O12)]
 Deg. of freedom    63
 Full point group                 C1      NOp   1
 Largest Abelian subgroup         C1      NOp   1
 Largest concise Abelian subgroup C1      NOp   1
                         Standard orientation:                         
 ---------------------------------------------------------------------
 Center     Atomic      Atomic             Coordinates (Angstroms)
 Number     Number       Type             X           Y           Z
 ---------------------------------------------------------------------
      1          8           0       -2.214420   -1.748785    1.590262
      2          7           0       -2.904317   -1.762768    0.571069
      3          8           0       -3.944169   -2.368303    0.327869
      4          8           0       -2.419830   -1.041108   -0.542525
      5          6           0       -1.269222   -0.249115   -0.243309
      6          6           0       -0.021351   -1.124250   -0.475510
      7          6           0        1.320896   -0.407206   -0.236510
      8          8           0        1.355120   -0.016829    1.130850
      9          7           0        1.716104    1.390660    1.199775
     10          8           0        0.506594    2.115821    0.996361
     11          8           0        2.128749    1.631127    2.533720
     12          8           0        2.316590   -1.393313   -0.531226
     13          7           0        3.590401   -0.837749   -0.765050
     14          8           0        4.430356   -1.678969   -1.066601
     15          8           0        3.691014    0.382732   -0.643180
     16          8           0       -1.162263    0.833089   -1.175386
     17          7           0       -2.124657    1.844568   -0.943720
     18          8           0       -2.932298    1.653021   -0.035396
     19          8           0       -2.021782    2.779183   -1.733802
     20          1           0       -1.265376    0.150626    0.779218
     21          1           0       -0.034979   -1.507600   -1.505558
     22          1           0       -0.070063   -2.017870    0.159828
     23          1           0        1.376465    0.433970   -0.943594
 ---------------------------------------------------------------------
 Rotational constants (GHZ):           0.4963346           0.2345490           0.2025166
 Standard basis: 6-31G(d) (6D, 7F)
 There are   293 symmetry adapted cartesian basis functions of A   symmetry.
 There are   293 symmetry adapted basis functions of A   symmetry.
   293 basis functions,   548 primitive gaussians,   293 cartesian basis functions
    73 alpha electrons       73 beta electrons
       nuclear repulsion energy      1617.7797191060 Hartrees.
 NAtoms=   23 NActive=   23 NUniq=   23 SFac= 1.00D+00 NAtFMM=   60 NAOKFM=F Big=F
 Integral buffers will be    131072 words long.
 Raffenetti 1 integral format.
 Two-electron integral symmetry is turned on.
 One-electron integrals computed using PRISM.
 NBasis=   293 RedAO= T EigKep=  2.15D-03  NBF=   293
 NBsUse=   293 1.00D-06 EigRej= -1.00D+00 NBFU=   293
 ExpMin= 1.61D-01 ExpMax= 5.48D+03 ExpMxC= 8.25D+02 IAcc=3 IRadAn=         5 AccDes= 0.00D+00
 Harris functional with IExCor=  205 and IRadAn=       5 diagonalized for initial guess.
 HarFok:  IExCor=  205 AccDes= 0.00D+00 IRadAn=         5 IDoV= 1 UseB2=F ITyADJ=14
 ICtDFT=  3500011 ScaDFX=  1.000000  1.000000  1.000000  1.000000
 FoFCou: FMM=F IPFlag=           0 FMFlag=      100000 FMFlg1=           0
         NFxFlg=           0 DoJE=T BraDBF=F KetDBF=T FulRan=T
         wScrn=  0.000000 ICntrl=       500 IOpCl=  0 I1Cent=   200000004 NGrid=           0
         NMat0=    1 NMatS0=      1 NMatT0=    0 NMatD0=    1 NMtDS0=    0 NMtDT0=    0
 Petite list used in FoFCou.
 Requested convergence on RMS density matrix=1.00D-08 within 128 cycles.
 Requested convergence on MAX density matrix=1.00D-06.
 Requested convergence on             energy=1.00D-06.
 No special actions if energy rises.
 Integral accuracy reduced to 1.0D-05 until final iterations.
 Initial convergence to 1.0D-05 achieved.  Increase integral accuracy.
 SCF Done:  E(RHF) =  -1231.12404705     A.U. after   28 cycles
            NFock= 28  Conv=0.61D-08     -V/T= 2.0048

 **********************************************************************

            Population analysis using the SCF Density.

 **********************************************************************

 Orbital symmetries:
       Occupied  (A) (A) (A) (A) (A) (A) (A) (A) (A) (A) (A) (A)
                 (A) (A) (A) (A) (A) (A) (A) (A) (A) (A) (A) (A)
                 (A) (A) (A) (A) (A) (A) (A) (A) (A) (A) (A) (A)
                 (A) (A) (A) (A) (A) (A) (A) (A) (A) (A) (A) (A)
                 (A) (A) (A) (A) (A) (A) (A) (A) (A) (A) (A) (A)
                 (A) (A) (A) (A) (A) (A) (A) (A) (A) (A) (A) (A)
                 (A)
       Virtual   (A) (A) (A) (A) (A) (A) (A) (A) (A) (A) (A) (A)
                 (A) (A) (A) (A) (A) (A) (A) (A) (A) (A) (A) (A)
                 (A) (A) (A) (A) (A) (A) (A) (A) (A) (A) (A) (A)
                 (A) (A) (A) (A) (A) (A) (A) (A) (A) (A) (A) (A)
                 (A) (A) (A) (A) (A) (A) (A) (A) (A) (A) (A) (A)
                 (A) (A) (A) (A) (A) (A) (A) (A) (A) (A) (A) (A)
                 (A) (A) (A) (A) (A) (A) (A) (A) (A) (A) (A) (A)
                 (A) (A) (A) (A) (A) (A) (A) (A) (A) (A) (A) (A)
                 (A) (A) (A) (A) (A) (A) (A) (A) (A) (A) (A) (A)
                 (A) (A) (A) (A) (A) (A) (A) (A) (A) (A) (A) (A)
                 (A) (A) (A) (A) (A) (A) (A) (A) (A) (A) (A) (A)
                 (A) (A) (A) (A) (A) (A) (A) (A) (A) (A) (A) (A)
                 (A) (A) (A) (A) (A) (A) (A) (A) (A) (A) (A) (A)
                 (A) (A) (A) (A) (A) (A) (A) (A) (A) (A) (A) (A)
                 (A) (A) (A) (A) (A) (A) (A) (A) (A) (A) (A) (A)
                 (A) (A) (A) (A) (A) (A) (A) (A) (A) (A) (A) (A)
                 (A) (A) (A) (A) (A) (A) (A) (A) (A) (A) (A) (A)
                 (A) (A) (A) (A) (A) (A) (A) (A) (A) (A) (A) (A)
                 (A) (A) (A) (A)
 The electronic state is 1-A.
 Alpha  occ. eigenvalues --  -20.74749 -20.74100 -20.73417 -20.73051 -20.71477
 Alpha  occ. eigenvalues --  -20.68902 -20.68897 -20.68415 -20.68171 -20.68095
 Alpha  occ. eigenvalues --  -20.67648 -20.67453 -15.98139 -15.97661 -15.96899
 Alpha  occ. eigenvalues --  -15.93722 -11.45126 -11.44340 -11.31990  -1.70231
 Alpha  occ. eigenvalues --   -1.69492  -1.68569  -1.58991  -1.50722  -1.49559
 Alpha  occ. eigenvalues --   -1.47973  -1.47166  -1.46536  -1.45402  -1.42617
 Alpha  occ. eigenvalues --   -1.34174  -1.15707  -1.07819  -1.01171  -0.98866
 Alpha  occ. eigenvalues --   -0.97458  -0.92257  -0.89363  -0.86027  -0.85679
 Alpha  occ. eigenvalues --   -0.84226  -0.83033  -0.81428  -0.80373  -0.79928
 Alpha  occ. eigenvalues --   -0.79387  -0.78578  -0.77894  -0.76122  -0.74196
 Alpha  occ. eigenvalues --   -0.71160  -0.69639  -0.67803  -0.67584  -0.65282
 Alpha  occ. eigenvalues --   -0.62662  -0.61696  -0.60315  -0.59649  -0.58789
 Alpha  occ. eigenvalues --   -0.57585  -0.56992  -0.56673  -0.56154  -0.55679
 Alpha  occ. eigenvalues --   -0.55213  -0.54593  -0.53925  -0.53757  -0.52034
 Alpha  occ. eigenvalues --   -0.51148  -0.50365  -0.47489
 Alpha virt. eigenvalues --   -0.10322   0.04539   0.05176   0.05781   0.16505
 Alpha virt. eigenvalues --    0.17956   0.20045   0.20485   0.23993   0.24832
 Alpha virt. eigenvalues --    0.25427   0.27153   0.27439   0.28452   0.28944
 Alpha virt. eigenvalues --    0.30254   0.34412   0.37106   0.38816   0.41578
 Alpha virt. eigenvalues --    0.42767   0.43637   0.44291   0.54978   0.55417
 Alpha virt. eigenvalues --    0.57331   0.66684   0.68502   0.69484   0.71226
 Alpha virt. eigenvalues --    0.73318   0.73586   0.76214   0.77354   0.78614
 Alpha virt. eigenvalues --    0.79612   0.80728   0.81453   0.83355   0.84199
 Alpha virt. eigenvalues --    0.84816   0.85744   0.86303   0.88239   0.89169
 Alpha virt. eigenvalues --    0.90746   0.91649   0.93890   0.96577   0.98968
 Alpha virt. eigenvalues --    1.01676   1.02399   1.03288   1.03547   1.04287
 Alpha virt. eigenvalues --    1.04636   1.05470   1.05914   1.07238   1.08604
 Alpha virt. eigenvalues --    1.09733   1.10619   1.10888   1.12823   1.13531
 Alpha virt. eigenvalues --    1.14363   1.16052   1.17494   1.18232   1.18826
 Alpha virt. eigenvalues --    1.19610   1.20731   1.20962   1.21944   1.22386
 Alpha virt. eigenvalues --    1.22576   1.23965   1.24186   1.24727   1.26762
 Alpha virt. eigenvalues --    1.28909   1.30104   1.32872   1.33373   1.34549
 Alpha virt. eigenvalues --    1.35477   1.36404   1.38209   1.41542   1.42616
 Alpha virt. eigenvalues --    1.45551   1.47827   1.48912   1.50891   1.52706
 Alpha virt. eigenvalues --    1.53754   1.55072   1.56658   1.58836   1.60730
 Alpha virt. eigenvalues --    1.61397   1.62733   1.62900   1.65672   1.68294
 Alpha virt. eigenvalues --    1.69316   1.69719   1.71423   1.75034   1.78340
 Alpha virt. eigenvalues --    1.80936   1.83483   1.86883   1.89278   1.90567
 Alpha virt. eigenvalues --    1.93229   1.94824   1.96796   1.99586   2.00435
 Alpha virt. eigenvalues --    2.00821   2.01883   2.02334   2.02986   2.03570
 Alpha virt. eigenvalues --    2.03742   2.03984   2.04202   2.04642   2.05488
 Alpha virt. eigenvalues --    2.06471   2.07574   2.10204   2.10712   2.12465
 Alpha virt. eigenvalues --    2.13035   2.14935   2.16932   2.18355   2.19112
 Alpha virt. eigenvalues --    2.22059   2.22779   2.23970   2.24544   2.26683
 Alpha virt. eigenvalues --    2.27259   2.28694   2.28894   2.30003   2.31209
 Alpha virt. eigenvalues --    2.32936   2.34040   2.35430   2.36012   2.36618
 Alpha virt. eigenvalues --    2.38475   2.39558   2.40938   2.43000   2.43781
 Alpha virt. eigenvalues --    2.47563   2.48436   2.50966   2.52554   2.58183
 Alpha virt. eigenvalues --    2.66931   2.70148   2.72531   2.75228   2.77333
 Alpha virt. eigenvalues --    2.78591   2.81128   2.86877   2.88410   2.91969
 Alpha virt. eigenvalues --    2.93731   2.98018   2.98138   2.99116   3.01116
 Alpha virt. eigenvalues --    3.01486   3.02946   3.08353   3.08880   3.10466
 Alpha virt. eigenvalues --    3.12309   3.13745   3.14504   3.15070   3.15936
 Alpha virt. eigenvalues --    3.16678   3.16987   3.17698   3.20894   3.27530
 Alpha virt. eigenvalues --    3.32738   3.34054   3.35709   3.38507   3.40749
 Alpha virt. eigenvalues --    3.42190   3.73752   3.90236   3.98044   4.01008
 Alpha virt. eigenvalues --    4.01408   4.14489   4.17008   4.17448   4.19074
 Alpha virt. eigenvalues --    4.21999   4.29582   4.30808   4.40552   4.44005
 Alpha virt. eigenvalues --    4.52600   4.59089   4.67140   4.84412   4.95748
          Condensed to atoms (all electrons):
               1          2          3          4          5          6
     1  O    8.275263   0.312715  -0.074695  -0.086710  -0.002379  -0.003821
     2  N    0.312715   5.234445   0.377317   0.196938  -0.028419  -0.000600
     3  O   -0.074695   0.377317   8.158922  -0.082066   0.002485  -0.000105
     4  O   -0.086710   0.196938  -0.082066   8.444340   0.126166  -0.039107
     5  C   -0.002379  -0.028419   0.002485   0.126166   4.649941   0.349738
     6  C   -0.003821  -0.000600  -0.000105  -0.039107   0.349738   5.223039
     7  C    0.000028  -0.000093   0.000000   0.002443  -0.047197   0.345933
     8  O    0.000007   0.000000   0.000000  -0.000009   0.002825  -0.054713
     9  N    0.000001   0.000000   0.000000  -0.000001  -0.000535   0.003869
    10  O   -0.000001   0.000001   0.000000   0.000016   0.001157  -0.002193
    11  O    0.000000   0.000000   0.000000   0.000000   0.000021  -0.000093
    12  O    0.000001   0.000000   0.000000  -0.000007   0.001537  -0.045569
    13  N    0.000000   0.000000   0.000000   0.000000  -0.000027   0.002759
    14  O    0.000000   0.000000   0.000000   0.000000   0.000000  -0.000104
    15  O    0.000000   0.000000   0.000000   0.000000   0.000018   0.000516
    16  O    0.000112   0.000801  -0.000022  -0.023881   0.146927  -0.051231
    17  N   -0.000008   0.000060   0.000002  -0.000149  -0.036859   0.002777
    18  O   -0.000080   0.000964  -0.000015  -0.003872   0.004527   0.000463
    19  O    0.000000   0.000001   0.000000  -0.000097   0.003076  -0.000134
    20  H    0.005533  -0.001761  -0.000008  -0.028683   0.394262  -0.039260
    21  H    0.000154   0.000195  -0.000021  -0.000686  -0.023744   0.375956
    22  H    0.004127  -0.000914  -0.000051  -0.000716  -0.026268   0.377196
    23  H   -0.000004  -0.000002   0.000000   0.000019  -0.002816  -0.038407
               7          8          9         10         11         12
     1  O    0.000028   0.000007   0.000001  -0.000001   0.000000   0.000001
     2  N   -0.000093   0.000000   0.000000   0.000001   0.000000   0.000000
     3  O    0.000000   0.000000   0.000000   0.000000   0.000000   0.000000
     4  O    0.002443  -0.000009  -0.000001   0.000016   0.000000  -0.000007
     5  C   -0.047197   0.002825  -0.000535   0.001157   0.000021   0.001537
     6  C    0.345933  -0.054713   0.003869  -0.002193  -0.000093  -0.045569
     7  C    4.697982   0.140948  -0.043128   0.001894   0.002425   0.145330
     8  O    0.140948   8.349454   0.121722  -0.057801  -0.044843  -0.035242
     9  N   -0.043128   0.121722   6.057823   0.161105   0.197585   0.000814
    10  O    0.001894  -0.057801   0.161105   8.273064  -0.084252  -0.000009
    11  O    0.002425  -0.044843   0.197585  -0.084252   8.122372  -0.000018
    12  O    0.145330  -0.035242   0.000814  -0.000009  -0.000018   8.436620
    13  N   -0.037893   0.000476   0.000810   0.000009   0.000011   0.193568
    14  O    0.002558  -0.000060   0.000007   0.000000   0.000000  -0.082363
    15  O    0.004797  -0.002133   0.001619  -0.000004  -0.000162  -0.088181
    16  O    0.002435  -0.000014   0.000008  -0.001370   0.000000  -0.000006
    17  N   -0.000022  -0.000011  -0.000009   0.001300   0.000000   0.000000
    18  O    0.000002   0.000000   0.000005  -0.000073   0.000000   0.000000
    19  O    0.000001   0.000000  -0.000001  -0.000123   0.000000   0.000000
    20  H   -0.001286   0.003041  -0.000980   0.004790  -0.000095  -0.000015
    21  H   -0.032565   0.002435  -0.000062   0.000005   0.000001   0.001941
    22  H   -0.020938  -0.001350  -0.000066   0.000003  -0.000002  -0.000637
    23  H    0.397992  -0.030109  -0.004009   0.003060   0.000132  -0.029091
              13         14         15         16         17         18
     1  O    0.000000   0.000000   0.000000   0.000112  -0.000008  -0.000080
     2  N    0.000000   0.000000   0.000000   0.000801   0.000060   0.000964
     3  O    0.000000   0.000000   0.000000  -0.000022   0.000002  -0.000015
     4  O    0.000000   0.000000   0.000000  -0.023881  -0.000149  -0.003872
     5  C   -0.000027   0.000000   0.000018   0.146927  -0.036859   0.004527
     6  C    0.002759  -0.000104   0.000516  -0.051231   0.002777   0.000463
     7  C   -0.037893   0.002558   0.004797   0.002435  -0.000022   0.000002
     8  O    0.000476  -0.000060  -0.002133  -0.000014  -0.000011   0.000000
     9  N    0.000810   0.000007   0.001619   0.000008  -0.000009   0.000005
    10  O    0.000009   0.000000  -0.000004  -0.001370   0.001300  -0.000073
    11  O    0.000011   0.000000  -0.000162   0.000000   0.000000   0.000000
    12  O    0.193568  -0.082363  -0.088181  -0.000006   0.000000   0.000000
    13  N    5.227640   0.380602   0.314678   0.000002   0.000000   0.000000
    14  O    0.380602   8.153259  -0.073992   0.000000   0.000000   0.000000
    15  O    0.314678  -0.073992   8.285476  -0.000001   0.000000   0.000000
    16  O    0.000002   0.000000  -0.000001   8.445181   0.188976  -0.085289
    17  N    0.000000   0.000000   0.000000   0.188976   5.225038   0.326399
    18  O    0.000000   0.000000   0.000000  -0.085289   0.326399   8.252480
    19  O    0.000000   0.000000   0.000000  -0.082901   0.374365  -0.073846
    20  H    0.000000   0.000000   0.000000  -0.030068  -0.003301   0.002691
    21  H   -0.000185  -0.000001   0.000018  -0.000707  -0.000142  -0.000011
    22  H   -0.000113  -0.000002  -0.000013   0.001847  -0.000019   0.000010
    23  H   -0.003780  -0.000034   0.002195   0.003766   0.000011   0.000010
              19         20         21         22         23
     1  O    0.000000   0.005533   0.000154   0.004127  -0.000004
     2  N    0.000001  -0.001761   0.000195  -0.000914  -0.000002
     3  O    0.000000  -0.000008  -0.000021  -0.000051   0.000000
     4  O   -0.000097  -0.028683  -0.000686  -0.000716   0.000019
     5  C    0.003076   0.394262  -0.023744  -0.026268  -0.002816
     6  C   -0.000134  -0.039260   0.375956   0.377196  -0.038407
     7  C    0.000001  -0.001286  -0.032565  -0.020938   0.397992
     8  O    0.000000   0.003041   0.002435  -0.001350  -0.030109
     9  N   -0.000001  -0.000980  -0.000062  -0.000066  -0.004009
    10  O   -0.000123   0.004790   0.000005   0.000003   0.003060
    11  O    0.000000  -0.000095   0.000001  -0.000002   0.000132
    12  O    0.000000  -0.000015   0.001941  -0.000637  -0.029091
    13  N    0.000000   0.000000  -0.000185  -0.000113  -0.003780
    14  O    0.000000   0.000000  -0.000001  -0.000002  -0.000034
    15  O    0.000000   0.000000   0.000018  -0.000013   0.002195
    16  O   -0.082901  -0.030068  -0.000707   0.001847   0.003766
    17  N    0.374365  -0.003301  -0.000142  -0.000019   0.000011
    18  O   -0.073846   0.002691  -0.000011   0.000010   0.000010
    19  O    8.167137   0.000016  -0.000001   0.000001   0.000017
    20  H    0.000016   0.396195   0.002686  -0.000702   0.000443
    21  H   -0.000001   0.002686   0.450781  -0.018191  -0.000642
    22  H    0.000001  -0.000702  -0.018191   0.427718   0.002795
    23  H    0.000017   0.000443  -0.000642   0.002795   0.411813
 Mulliken charges:
               1
     1  O   -0.430246
     2  N    0.908354
     3  O   -0.381744
     4  O   -0.503940
     5  C    0.485563
     6  C   -0.406910
     7  C    0.438353
     8  O   -0.394620
     9  N    0.503424
    10  O   -0.300579
    11  O   -0.193083
    12  O   -0.498674
    13  N    0.921443
    14  O   -0.379872
    15  O   -0.444832
    16  O   -0.514564
    17  N    0.921591
    18  O   -0.424367
    19  O   -0.387512
    20  H    0.296502
    21  H    0.242787
    22  H    0.256285
    23  H    0.286640
 Sum of Mulliken charges =   0.00000
 Mulliken charges with hydrogens summed into heavy atoms:
               1
     1  O   -0.430246
     2  N    0.908354
     3  O   -0.381744
     4  O   -0.503940
     5  C    0.782065
     6  C    0.092162
     7  C    0.724993
     8  O   -0.394620
     9  N    0.503424
    10  O   -0.300579
    11  O   -0.193083
    12  O   -0.498674
    13  N    0.921443
    14  O   -0.379872
    15  O   -0.444832
    16  O   -0.514564
    17  N    0.921591
    18  O   -0.424367
    19  O   -0.387512
 Electronic spatial extent (au):  <R**2>=           5351.5352
 Charge=              0.0000 electrons
 Dipole moment (field-independent basis, Debye):
    X=              1.0523    Y=             -2.2723    Z=             -1.6868  Tot=              3.0193
 Quadrupole moment (field-independent basis, Debye-Ang):
   XX=           -128.0189   YY=           -118.2645   ZZ=           -110.6454
   XY=              0.4023   XZ=             -0.6789   YZ=              1.7379
 Traceless Quadrupole moment (field-independent basis, Debye-Ang):
   XX=             -9.0426   YY=              0.7117   ZZ=              8.3309
   XY=              0.4023   XZ=             -0.6789   YZ=              1.7379
 Octapole moment (field-independent basis, Debye-Ang**2):
  XXX=            -11.5072  YYY=            -14.0883  ZZZ=             -7.0288  XYY=             12.0651
  XXY=             25.8463  XXZ=              7.8354  XZZ=             -0.1957  YZZ=             -5.4696
  YYZ=              2.2701  XYZ=            -17.4340
 Hexadecapole moment (field-independent basis, Debye-Ang**3):
 XXXX=          -4376.0299 YYYY=          -1598.9612 ZZZZ=           -793.0910 XXXY=            -14.1895
 XXXZ=             67.3725 YYYX=             19.8300 YYYZ=             13.2279 ZZZX=            -22.2036
 ZZZY=             13.6205 XXYY=          -1047.5608 XXZZ=           -812.5070 YYZZ=           -424.2732
 XXYZ=            -15.6941 YYXZ=             -1.7077 ZZXY=            -13.0757
 N-N= 1.617779719106D+03 E-N=-6.133076540216D+03  KE= 1.225256637328D+03
 Calling FoFJK, ICntrl=      2127 FMM=F ISym2X=0 I1Cent= 0 IOpClX= 0 NMat=1 NMatS=1 NMatT=0.
 ***** Axes restored to original set *****
 -------------------------------------------------------------------
 Center     Atomic                   Forces (Hartrees/Bohr)
 Number     Number              X              Y              Z
 -------------------------------------------------------------------
      1        8          -0.067951446   -0.050121296   -0.014303443
      2        7          -0.019185510    0.002733027    0.025699022
      3        8           0.092799197    0.012949780   -0.046890142
      4        8           0.001487890    0.037020065    0.021169115
      5        6           0.034015060    0.004463887   -0.002953983
      6        6           0.001736311   -0.014018701    0.012934292
      7        6          -0.032385138   -0.011990673    0.008283452
      8        8           0.043106649   -0.044581582   -0.066935968
      9        7          -0.101965406    0.266973108    0.033885710
     10        8           0.108658273   -0.075930894    0.036507493
     11        8          -0.038411841   -0.163103508   -0.014578828
     12        8           0.031108446    0.003516697   -0.039265532
     13        7           0.027840807   -0.018206475    0.007777093
     14        8          -0.057458190    0.060656455   -0.062976824
     15        8          -0.006992207   -0.029248278    0.076998042
     16        8          -0.042446526    0.034794145    0.001144056
     17        7          -0.018528559    0.000613257   -0.031936347
     18        8           0.042239610   -0.071968589   -0.037039306
     19        8           0.004354513    0.045981756    0.092845245
     20        1          -0.015083311   -0.017454492    0.002831026
     21        1           0.003047010    0.009712892   -0.005387500
     22        1          -0.002268237    0.002398699   -0.012368970
     23        1           0.012282606    0.014810719    0.014562297
 -------------------------------------------------------------------
 Cartesian Forces:  Max     0.266973108 RMS     0.054993867

 GradGradGradGradGradGradGradGradGradGradGradGradGradGradGradGradGradGrad
 Berny optimization.
 FormGI is forming the generalized inverse of G from B-inverse, IUseBI=4.
 Internal  Forces:  Max     0.159558917 RMS     0.036228513
 Search for a local minimum.
 Step number   1 out of a maximum of  108
 All quantities printed in internal units (Hartrees-Bohrs-Radians)
 Mixed Optimization -- RFO/linear search
 Second derivative matrix not updated -- first step.
 ITU=  0
     Eigenvalues ---    0.00230   0.00231   0.00572   0.01093   0.01127
     Eigenvalues ---    0.01173   0.01265   0.01268   0.01314   0.01395
     Eigenvalues ---    0.02922   0.02931   0.02948   0.03183   0.04656
     Eigenvalues ---    0.05649   0.06001   0.06922   0.07017   0.08338
     Eigenvalues ---    0.08478   0.08669   0.08874   0.12459   0.17385
     Eigenvalues ---    0.17663   0.19230   0.20245   0.20485   0.21890
     Eigenvalues ---    0.24973   0.24994   0.25000   0.25000   0.25000
     Eigenvalues ---    0.25000   0.25000   0.25000   0.25000   0.25000
     Eigenvalues ---    0.25000   0.28365   0.28482   0.33650   0.33776
     Eigenvalues ---    0.33916   0.33956   0.37639   0.40666   0.40701
     Eigenvalues ---    0.41202   0.41741   0.42100   0.42936   0.43182
     Eigenvalues ---    0.43585   0.44125   0.90747   0.90808   0.90896
     Eigenvalues ---    0.91867   0.92075   0.92594
 RFO step:  Lambda=-1.98521027D-01 EMin= 2.30000000D-03
 Linear search not attempted -- first point.
 Maximum step size (   0.300) exceeded in Quadratic search.
    -- Step size scaled by   0.574
 Iteration  1 RMS(Cart)=  0.05423822 RMS(Int)=  0.00382432
 Iteration  2 RMS(Cart)=  0.00407185 RMS(Int)=  0.00160786
 Iteration  3 RMS(Cart)=  0.00004656 RMS(Int)=  0.00160755
 Iteration  4 RMS(Cart)=  0.00000050 RMS(Int)=  0.00160755
 Variable       Old X    -DE/DX   Delta X   Delta X   Delta X     New X
                                 (Linear)    (Quad)   (Total)
    R1        2.32590  -0.08543   0.00000  -0.04433  -0.04433   2.28158
    R2        2.31991  -0.10474   0.00000  -0.05370  -0.05370   2.26621
    R3        2.66954  -0.04973   0.00000  -0.04499  -0.04499   2.62456
    R4        2.69952  -0.01361   0.00000  -0.01279  -0.01279   2.68673
    R5        2.91347  -0.01408   0.00000  -0.01676  -0.01676   2.89671
    R6        2.70658  -0.02579   0.00000  -0.02445  -0.02445   2.68213
    R7        2.07472  -0.02090   0.00000  -0.02231  -0.02231   2.05241
    R8        2.91098  -0.01025   0.00000  -0.01217  -0.01217   2.89881
    R9        2.07710  -0.01062   0.00000  -0.01136  -0.01136   2.06574
   R10        2.07404  -0.01094   0.00000  -0.01167  -0.01167   2.06237
   R11        2.68796  -0.01271   0.00000  -0.01177  -0.01177   2.67619
   R12        2.70612  -0.02277   0.00000  -0.02158  -0.02158   2.68454
   R13        2.07924  -0.02028   0.00000  -0.02175  -0.02175   2.05749
   R14        2.74894  -0.05461   0.00000  -0.05451  -0.05451   2.69443
   R15        2.69254  -0.12540   0.00000  -0.11684  -0.11684   2.57571
   R16        2.67749  -0.15956   0.00000  -0.14584  -0.14584   2.53165
   R17        2.66305  -0.04454   0.00000  -0.03995  -0.03995   2.62310
   R18        2.31760  -0.10458   0.00000  -0.05338  -0.05338   2.26422
   R19        2.32563  -0.08247   0.00000  -0.04277  -0.04277   2.28286
   R20        2.67445  -0.04441   0.00000  -0.04043  -0.04043   2.63402
   R21        2.32523  -0.09117   0.00000  -0.04724  -0.04724   2.27799
   R22        2.32084  -0.10367   0.00000  -0.05326  -0.05326   2.26759
    A1        2.27107  -0.00538   0.00000  -0.00682  -0.00683   2.26424
    A2        2.04285   0.00720   0.00000   0.00929   0.00928   2.05213
    A3        1.96742  -0.00166   0.00000  -0.00205  -0.00205   1.96537
    A4        1.97615   0.01344   0.00000   0.01719   0.01719   1.99334
    A5        1.88145   0.01091   0.00000   0.01508   0.01501   1.89646
    A6        1.92064  -0.01371   0.00000  -0.02475  -0.02475   1.89589
    A7        1.98205  -0.00474   0.00000  -0.00784  -0.00804   1.97402
    A8        1.84465  -0.00223   0.00000  -0.00348  -0.00342   1.84123
    A9        1.92208   0.00515   0.00000   0.01335   0.01331   1.93539
   A10        1.90787   0.00480   0.00000   0.00796   0.00784   1.91572
   A11        2.00168  -0.00479   0.00000  -0.00742  -0.00743   1.99425
   A12        1.90612   0.00069   0.00000   0.00039   0.00039   1.90651
   A13        1.91671  -0.00091   0.00000  -0.00271  -0.00271   1.91400
   A14        1.89499   0.00130   0.00000   0.00188   0.00187   1.89686
   A15        1.90484   0.00228   0.00000   0.00334   0.00332   1.90815
   A16        1.83171   0.00205   0.00000   0.00574   0.00574   1.83744
   A17        1.87325   0.00945   0.00000   0.01427   0.01425   1.88750
   A18        1.82698  -0.00191   0.00000  -0.00186  -0.00179   1.82518
   A19        1.87566   0.00988   0.00000   0.02158   0.02157   1.89723
   A20        1.94991  -0.00873   0.00000  -0.01624  -0.01630   1.93361
   A21        1.98967  -0.00695   0.00000  -0.01269  -0.01301   1.97666
   A22        1.93807   0.00005   0.00000  -0.00153  -0.00171   1.93636
   A23        1.89343   0.02972   0.00000   0.03803   0.03803   1.93145
   A24        1.84940   0.05472   0.00000   0.08701   0.08088   1.93029
   A25        1.85573  -0.00071   0.00000   0.02548   0.01480   1.87052
   A26        1.87052   0.07130   0.00000   0.12422   0.11833   1.98885
   A27        1.97270   0.01082   0.00000   0.01385   0.01385   1.98655
   A28        1.97084   0.00025   0.00000   0.00032   0.00032   1.97116
   A29        2.03581   0.00646   0.00000   0.00826   0.00826   2.04407
   A30        2.27653  -0.00671   0.00000  -0.00858  -0.00858   2.26795
   A31        1.96352   0.01842   0.00000   0.02357   0.02357   1.98709
   A32        2.04420   0.00467   0.00000   0.00600   0.00599   2.05020
   A33        1.96234  -0.00003   0.00000  -0.00001  -0.00001   1.96233
   A34        2.27620  -0.00457   0.00000  -0.00582  -0.00583   2.27038
    D1       -3.07337  -0.00334   0.00000  -0.00820  -0.00818  -3.08155
    D2       -0.13930   0.00125   0.00000   0.00337   0.00339  -0.13591
    D3        3.06085  -0.00113   0.00000  -0.00306  -0.00308   3.05777
    D4        1.55456   0.00778   0.00000   0.01795   0.01796   1.57252
    D5       -2.72495   0.00398   0.00000   0.00919   0.00904  -2.71592
    D6       -0.57991  -0.00350   0.00000  -0.00474  -0.00459  -0.58451
    D7        3.11192  -0.00479   0.00000  -0.00859  -0.00866   3.10326
    D8        0.98079  -0.00366   0.00000  -0.00615  -0.00622   0.97458
    D9       -1.01902  -0.00600   0.00000  -0.01175  -0.01181  -1.03082
   D10        1.05851   0.00691   0.00000   0.01450   0.01451   1.07302
   D11       -1.07262   0.00804   0.00000   0.01695   0.01696  -1.05566
   D12       -3.07243   0.00570   0.00000   0.01135   0.01137  -3.06105
   D13       -1.00025  -0.00015   0.00000   0.00022   0.00026  -0.99998
   D14       -3.13137   0.00098   0.00000   0.00266   0.00271  -3.12866
   D15        1.15200  -0.00135   0.00000  -0.00294  -0.00288   1.14912
   D16        1.28057  -0.00264   0.00000  -0.00020  -0.00026   1.28031
   D17       -2.97569   0.00219   0.00000   0.00341   0.00344  -2.97225
   D18       -0.90745   0.00946   0.00000   0.02125   0.02128  -0.88617
   D19        1.08432   0.00346   0.00000   0.00742   0.00750   1.09182
   D20       -3.12455  -0.00308   0.00000  -0.00544  -0.00546  -3.13001
   D21       -1.06270   0.00063   0.00000   0.00192   0.00185  -1.06085
   D22       -3.06171   0.00204   0.00000   0.00423   0.00430  -3.05741
   D23       -0.98740  -0.00450   0.00000  -0.00864  -0.00865  -0.99605
   D24        1.07446  -0.00080   0.00000  -0.00128  -0.00135   1.07311
   D25       -1.07428   0.00633   0.00000   0.01374   0.01383  -1.06045
   D26        1.00003  -0.00021   0.00000   0.00088   0.00087   1.00090
   D27        3.06189   0.00350   0.00000   0.00824   0.00818   3.07006
   D28       -2.26543  -0.00928   0.00000  -0.02118  -0.02114  -2.28657
   D29        2.02447  -0.00789   0.00000  -0.01873  -0.01856   2.00590
   D30       -0.19042   0.00530   0.00000   0.00785   0.00765  -0.18278
   D31        2.82583   0.00339   0.00000   0.01014   0.01014   2.83597
   D32       -1.43563   0.00922   0.00000   0.01807   0.01805  -1.41758
   D33        0.80695  -0.00716   0.00000  -0.01340  -0.01337   0.79359
   D34        1.45519  -0.05522   0.00000  -0.10324  -0.10337   1.35182
   D35       -2.84155   0.04960   0.00000   0.08746   0.08759  -2.75396
   D36        1.97622   0.05596   0.00000   0.12406   0.13221   2.10843
   D37       -3.09656   0.00032   0.00000   0.00091   0.00090  -3.09566
   D38        0.04217   0.00081   0.00000   0.00216   0.00217   0.04434
   D39        3.13824   0.00060   0.00000   0.00151   0.00150   3.13974
   D40       -0.04228   0.00275   0.00000   0.00735   0.00736  -0.03492
   D41        3.12765   0.00064   0.00000   0.00194   0.00193   3.12958
   D42       -3.10719  -0.00269   0.00000  -0.00674  -0.00673  -3.11392
         Item               Value     Threshold  Converged?
 Maximum Force            0.159559     0.000450     NO 
 RMS     Force            0.036229     0.000300     NO 
 Maximum Displacement     0.253211     0.001800     NO 
 RMS     Displacement     0.054137     0.001200     NO 
 Predicted change in Energy=-9.393730D-02
 GradGradGradGradGradGradGradGradGradGradGradGradGradGradGradGradGradGrad

                          Input orientation:                          
 ---------------------------------------------------------------------
 Center     Atomic      Atomic             Coordinates (Angstroms)
 Number     Number       Type             X           Y           Z
 ---------------------------------------------------------------------
      1          8           0       -1.865776    1.680466    2.058623
      2          7           0       -2.748728    0.898133    1.801593
      3          8           0       -3.826922    0.765161    2.309488
      4          8           0       -2.499556   -0.053187    0.820868
      5          6           0       -1.276367    0.136937    0.121544
      6          6           0       -0.168063   -0.626374    0.855515
      7          6           0        1.205242   -0.551448    0.176157
      8          8           0        1.616738    0.803548    0.161551
      9          7           0        2.055970    1.181998   -1.141079
     10          8           0        0.989958    1.402703   -1.961256
     11          8           0        2.858733    2.244501   -0.994680
     12          8           0        2.057416   -1.328248    1.005904
     13          7           0        3.240681   -1.712810    0.390454
     14          8           0        3.924335   -2.408530    1.086309
     15          8           0        3.431006   -1.314870   -0.734169
     16          8           0       -1.381915   -0.479847   -1.152390
     17          7           0       -2.194692    0.212673   -2.048308
     18          8           0       -2.737192    1.212198   -1.648593
     19          8           0       -2.255380   -0.323487   -3.120102
     20          1           0       -1.012023    1.183567    0.002049
     21          1           0       -0.455525   -1.676872    0.949205
     22          1           0       -0.085005   -0.258517    1.879650
     23          1           0        1.127066   -0.987696   -0.818333
 ---------------------------------------------------------------------
                    Distance matrix (angstroms):
                    1          2          3          4          5
     1  O    0.000000
     2  N    1.207358   0.000000
     3  O    2.178718   1.199226   0.000000
     4  O    2.222446   1.388855   2.155826   0.000000
     5  C    2.546008   2.360049   3.418640   1.421757   0.000000
     6  C    3.106640   3.143090   4.175843   2.401168   1.532872
     7  C    4.237484   4.514112   5.622032   3.793342   2.575896
     8  O    4.061498   4.664330   5.852226   4.255887   2.969180
     9  N    5.085927   5.641367   6.832905   5.111530   3.713602
    10  O    4.938804   5.328357   6.469007   4.694308   3.328130
    11  O    5.653475   6.409015   7.602892   6.106296   4.773556
    12  O    5.054900   5.356203   6.380214   4.735611   3.747395
    13  N    6.353976   6.684411   7.731368   5.990820   4.888517
    14  O    7.154765   7.481672   8.464660   6.847224   5.870049
    15  O    6.695343   7.036802   8.140510   6.259517   4.999935
    16  O    3.900215   3.534547   4.417319   2.307576   1.419321
    17  N    4.373726   3.949500   4.686129   2.897549   2.357396
    18  O    3.836937   3.464470   4.129620   2.784943   2.534478
    19  O    5.566579   5.094981   5.756331   3.957768   3.417415
    20  H    2.281512   2.517136   3.663741   2.100662   1.086090
    21  H    3.806748   3.551900   4.379523   2.613597   2.156086
    22  H    2.638717   2.905056   3.903155   2.644473   2.160246
    23  H    4.934882   5.044020   6.115372   4.088114   2.815077
                    6          7          8          9         10
     6  C    0.000000
     7  C    1.533984   0.000000
     8  O    2.389932   1.416177   0.000000
     9  N    3.493267   2.337452   1.425831   0.000000
    10  O    3.659557   2.904064   2.293066   1.363005   0.000000
    11  O    4.563621   3.452858   2.226156   1.339692   2.266101
    12  O    2.338375   1.420598   2.334884   3.303161   4.171523
    13  N    3.607791   2.353231   3.003605   3.482678   4.505854
    14  O    4.469571   3.416225   4.061727   4.619950   5.694183
    15  O    3.994298   2.523001   2.929433   2.879348   3.853526
    16  O    2.350870   2.909217   3.516457   3.818496   3.134333
    17  N    3.639150   4.134208   4.445179   4.453177   3.400845
    18  O    4.031294   4.688598   4.732898   4.820051   3.745089
    19  O    4.500462   4.784683   5.199303   4.977022   3.854201
    20  H    2.171764   2.820790   2.660872   3.274038   2.812563
    21  H    1.093141   2.149960   3.326733   4.341662   4.477050
    22  H    1.091361   2.156951   2.641169   3.972866   4.320619
    23  H    2.147016   1.088776   2.099645   2.382142   2.653127
                   11         12         13         14         15
    11  O    0.000000
    12  O    4.172408   0.000000
    13  N    4.210082   1.388086   0.000000
    14  O    5.207372   2.158439   1.198175   0.000000
    15  O    3.614483   2.216931   1.208039   2.180277   0.000000
    16  O    5.042821   4.148134   5.026824   6.073539   4.902692
    17  N    5.547573   5.457387   6.260857   7.357922   5.975687
    18  O    5.727794   6.040570   6.960485   8.060106   6.728218
    19  O    6.104599   6.052576   6.667901   7.760810   6.245838
    20  H    4.135432   4.091259   5.159976   6.200517   5.150215
    21  H    5.490005   2.537642   3.738373   4.442667   4.250873
    22  H    4.815856   2.549064   3.923373   4.618090   4.506691
    23  H    3.671086   2.075901   2.540536   3.670305   2.328576
                   16         17         18         19         20
    16  O    0.000000
    17  N    1.393865   0.000000
    18  O    2.223963   1.205458   0.000000
    19  O    2.158536   1.199955   2.180782   0.000000
    20  H    2.058275   2.558379   2.387812   3.683065   0.000000
    21  H    2.589936   3.947172   4.505695   4.650847   3.064132
    22  H    3.305182   4.483487   4.652483   5.450895   2.542509
    23  H    2.581568   3.740027   4.523424   4.144907   3.156440
                   21         22         23
    21  H    0.000000
    22  H    1.736302   0.000000
    23  H    2.470576   3.046298   0.000000
 Stoichiometry    C3H4N4O12
 Framework group  C1[X(C3H4N4O12)]
 Deg. of freedom    63
 Full point group                 C1      NOp   1
 Largest Abelian subgroup         C1      NOp   1
 Largest concise Abelian subgroup C1      NOp   1
                         Standard orientation:                         
 ---------------------------------------------------------------------
 Center     Atomic      Atomic             Coordinates (Angstroms)
 Number     Number       Type             X           Y           Z
 ---------------------------------------------------------------------
      1          8           0       -2.291998   -1.736574    1.578945
      2          7           0       -2.950725   -1.711149    0.567439
      3          8           0       -3.983304   -2.264484    0.311030
      4          8           0       -2.443956   -0.999449   -0.512184
      5          6           0       -1.277411   -0.242675   -0.215779
      6          6           0       -0.045967   -1.117576   -0.476145
      7          6           0        1.293152   -0.405529   -0.246238
      8          8           0        1.366898   -0.034729    1.118543
      9          7           0        1.750067    1.332492    1.248485
     10          8           0        0.693345    2.153354    0.989050
     11          8           0        2.267717    1.483376    2.474881
     12          8           0        2.275868   -1.383215   -0.556881
     13          7           0        3.538818   -0.855226   -0.787026
     14          8           0        4.343529   -1.687264   -1.096501
     15          8           0        3.669292    0.338340   -0.653851
     16          8           0       -1.184321    0.828416   -1.142370
     17          7           0       -2.106106    1.849590   -0.917923
     18          8           0       -2.887495    1.703998   -0.011632
     19          8           0       -1.996372    2.747070   -1.706835
     20          1           0       -1.268342    0.146916    0.797990
     21          1           0       -0.075574   -1.483823   -1.505681
     22          1           0       -0.091759   -2.011352    0.148464
     23          1           0        1.359032    0.442270   -0.926186
 ---------------------------------------------------------------------
 Rotational constants (GHZ):           0.5093313           0.2350052           0.2039445
 Standard basis: 6-31G(d) (6D, 7F)
 There are   293 symmetry adapted cartesian basis functions of A   symmetry.
 There are   293 symmetry adapted basis functions of A   symmetry.
   293 basis functions,   548 primitive gaussians,   293 cartesian basis functions
    73 alpha electrons       73 beta electrons
       nuclear repulsion energy      1632.0637765119 Hartrees.
 NAtoms=   23 NActive=   23 NUniq=   23 SFac= 1.00D+00 NAtFMM=   60 NAOKFM=F Big=F
 Integral buffers will be    131072 words long.
 Raffenetti 1 integral format.
 Two-electron integral symmetry is turned on.
 One-electron integrals computed using PRISM.
 NBasis=   293 RedAO= T EigKep=  2.02D-03  NBF=   293
 NBsUse=   293 1.00D-06 EigRej= -1.00D+00 NBFU=   293
 Initial guess from the checkpoint file:  "C:\g16w\Scratch\Gau-17752.chk"
 B after Tr=     0.000000    0.000000    0.000000
         Rot=    0.999941   -0.004237   -0.004388    0.009030 Ang=  -1.25 deg.
 ExpMin= 1.61D-01 ExpMax= 5.48D+03 ExpMxC= 8.25D+02 IAcc=3 IRadAn=         5 AccDes= 0.00D+00
 Harris functional with IExCor=  205 and IRadAn=       5 diagonalized for initial guess.
 HarFok:  IExCor=  205 AccDes= 0.00D+00 IRadAn=         5 IDoV= 1 UseB2=F ITyADJ=14
 ICtDFT=  3500011 ScaDFX=  1.000000  1.000000  1.000000  1.000000
 FoFCou: FMM=F IPFlag=           0 FMFlag=      100000 FMFlg1=           0
         NFxFlg=           0 DoJE=T BraDBF=F KetDBF=T FulRan=T
         wScrn=  0.000000 ICntrl=       500 IOpCl=  0 I1Cent=   200000004 NGrid=           0
         NMat0=    1 NMatS0=      1 NMatT0=    0 NMatD0=    1 NMtDS0=    0 NMtDT0=    0
 Petite list used in FoFCou.
 Requested convergence on RMS density matrix=1.00D-08 within 128 cycles.
 Requested convergence on MAX density matrix=1.00D-06.
 Requested convergence on             energy=1.00D-06.
 No special actions if energy rises.
 Integral accuracy reduced to 1.0D-05 until final iterations.
 Initial convergence to 1.0D-05 achieved.  Increase integral accuracy.
 SCF Done:  E(RHF) =  -1231.22734875     A.U. after   21 cycles
            NFock= 21  Conv=0.87D-08     -V/T= 2.0040
 Calling FoFJK, ICntrl=      2127 FMM=F ISym2X=0 I1Cent= 0 IOpClX= 0 NMat=1 NMatS=1 NMatT=0.
 ***** Axes restored to original set *****
 -------------------------------------------------------------------
 Center     Atomic                   Forces (Hartrees/Bohr)
 Number     Number              X              Y              Z
 -------------------------------------------------------------------
      1        8          -0.036468667   -0.028625929   -0.010538752
      2        7          -0.015163439   -0.004263592    0.013953832
      3        8           0.053683747    0.009174533   -0.026283479
      4        8           0.002280613    0.025629433    0.014104861
      5        6           0.026129002    0.000716147   -0.003678573
      6        6           0.001461676   -0.010095617    0.010671147
      7        6          -0.026733724   -0.010267128    0.008636554
      8        8           0.032664942   -0.039509798   -0.056478580
      9        7          -0.075110281    0.252179200    0.018566422
     10        8           0.106633491   -0.068248714    0.055063756
     11        8          -0.055750243   -0.155147355   -0.025186564
     12        8           0.020752130    0.003129737   -0.027843488
     13        7           0.016030594   -0.012062316    0.009502916
     14        8          -0.033473385    0.035411714   -0.036631530
     15        8          -0.005071317   -0.015785203    0.042961234
     16        8          -0.028995259    0.023238197    0.001685522
     17        7          -0.009866903   -0.003507188   -0.020040181
     18        8           0.025060860   -0.041275334   -0.018910637
     19        8           0.003309336    0.028133394    0.053218758
     20        1          -0.011167084   -0.009062625    0.002224406
     21        1           0.002120816    0.006081269   -0.004796365
     22        1          -0.001294727    0.003328879   -0.007927614
     23        1           0.008967821    0.010828297    0.007726353
 -------------------------------------------------------------------
 Cartesian Forces:  Max     0.252179200 RMS     0.046262690

 GradGradGradGradGradGradGradGradGradGradGradGradGradGradGradGradGradGrad
 Berny optimization.
 Using GEDIIS/GDIIS optimizer.
 FormGI is forming the generalized inverse of G from B-inverse, IUseBI=4.
 Internal  Forces:  Max     0.159205349 RMS     0.028260180
 Search for a local minimum.
 Step number   2 out of a maximum of  108
 All quantities printed in internal units (Hartrees-Bohrs-Radians)
 Mixed Optimization -- RFO/linear search
 Update second derivatives using D2CorX and points    1    2
 DE= -1.03D-01 DEPred=-9.39D-02 R= 1.10D+00
 TightC=F SS=  1.41D+00  RLast= 3.56D-01 DXNew= 5.0454D-01 1.0669D+00
 Trust test= 1.10D+00 RLast= 3.56D-01 DXMaxT set to 5.05D-01
 ITU=  1  0
 Use linear search instead of GDIIS.
 Linear search step of   0.590 exceeds DXMaxT=   0.505 but not scaled.
 Quartic linear search produced a step of  2.00000.
 Iteration  1 RMS(Cart)=  0.09832388 RMS(Int)=  0.02008273
 Iteration  2 RMS(Cart)=  0.01905881 RMS(Int)=  0.00885923
 Iteration  3 RMS(Cart)=  0.00015727 RMS(Int)=  0.00885840
 Iteration  4 RMS(Cart)=  0.00000255 RMS(Int)=  0.00885840
 Iteration  5 RMS(Cart)=  0.00000009 RMS(Int)=  0.00885840
 Variable       Old X    -DE/DX   Delta X   Delta X   Delta X     New X
                                 (Linear)    (Quad)   (Total)
    R1        2.28158  -0.04746  -0.08866   0.00000  -0.08866   2.19292
    R2        2.26621  -0.06041  -0.10741   0.00000  -0.10741   2.15880
    R3        2.62456  -0.03276  -0.08998   0.00000  -0.08998   2.53458
    R4        2.68673  -0.00829  -0.02558   0.00000  -0.02558   2.66115
    R5        2.89671  -0.00903  -0.03352   0.00000  -0.03352   2.86319
    R6        2.68213  -0.01640  -0.04891   0.00000  -0.04891   2.63322
    R7        2.05241  -0.01170  -0.04461   0.00000  -0.04461   2.00780
    R8        2.89881  -0.00827  -0.02433   0.00000  -0.02433   2.87448
    R9        2.06574  -0.00681  -0.02273   0.00000  -0.02273   2.04301
   R10        2.06237  -0.00642  -0.02333   0.00000  -0.02333   2.03904
   R11        2.67619  -0.00773  -0.02354   0.00000  -0.02354   2.65264
   R12        2.68454  -0.01392  -0.04315   0.00000  -0.04315   2.64139
   R13        2.05749  -0.01204  -0.04351   0.00000  -0.04351   2.01398
   R14        2.69443  -0.04408  -0.10902   0.00000  -0.10902   2.58541
   R15        2.57571  -0.12758  -0.23368   0.00000  -0.23368   2.34203
   R16        2.53165  -0.15921  -0.29168   0.00000  -0.29168   2.23997
   R17        2.62310  -0.02831  -0.07990   0.00000  -0.07990   2.54320
   R18        2.26422  -0.06094  -0.10675   0.00000  -0.10675   2.15747
   R19        2.28286  -0.04599  -0.08553   0.00000  -0.08553   2.19733
   R20        2.63402  -0.02823  -0.08086   0.00000  -0.08086   2.55316
   R21        2.27799  -0.05177  -0.09448   0.00000  -0.09448   2.18350
   R22        2.26759  -0.06027  -0.10651   0.00000  -0.10651   2.16108
    A1        2.26424  -0.00216  -0.01365   0.00000  -0.01370   2.25054
    A2        2.05213   0.00137   0.01856   0.00000   0.01852   2.07065
    A3        1.96537   0.00093  -0.00411   0.00000  -0.00416   1.96121
    A4        1.99334   0.01037   0.03438   0.00000   0.03438   2.02773
    A5        1.89646   0.00692   0.03002   0.00000   0.02960   1.92606
    A6        1.89589  -0.00965  -0.04950   0.00000  -0.04944   1.84645
    A7        1.97402  -0.00390  -0.01607   0.00000  -0.01719   1.95682
    A8        1.84123  -0.00049  -0.00684   0.00000  -0.00645   1.83478
    A9        1.93539   0.00409   0.02662   0.00000   0.02633   1.96172
   A10        1.91572   0.00300   0.01569   0.00000   0.01498   1.93069
   A11        1.99425  -0.00532  -0.01486   0.00000  -0.01491   1.97934
   A12        1.90651   0.00121   0.00078   0.00000   0.00079   1.90729
   A13        1.91400  -0.00036  -0.00542   0.00000  -0.00542   1.90858
   A14        1.89686   0.00118   0.00374   0.00000   0.00367   1.90053
   A15        1.90815   0.00211   0.00664   0.00000   0.00649   1.91465
   A16        1.83744   0.00177   0.01147   0.00000   0.01142   1.84887
   A17        1.88750   0.00419   0.02849   0.00000   0.02826   1.91576
   A18        1.82518   0.00060  -0.00358   0.00000  -0.00316   1.82202
   A19        1.89723   0.00774   0.04313   0.00000   0.04303   1.94026
   A20        1.93361  -0.00551  -0.03260   0.00000  -0.03288   1.90073
   A21        1.97666  -0.00561  -0.02603   0.00000  -0.02787   1.94878
   A22        1.93636  -0.00040  -0.00342   0.00000  -0.00450   1.93186
   A23        1.93145   0.01992   0.07605   0.00000   0.07605   2.00750
   A24        1.93029   0.02911   0.16176   0.00000   0.11814   2.04842
   A25        1.87052   0.00245   0.02959   0.00000  -0.02539   1.84513
   A26        1.98885   0.05300   0.23666   0.00000   0.20012   2.18897
   A27        1.98655   0.00974   0.02770   0.00000   0.02770   2.01424
   A28        1.97116   0.00102   0.00064   0.00000   0.00064   1.97180
   A29        2.04407   0.00201   0.01652   0.00000   0.01652   2.06059
   A30        2.26795  -0.00303  -0.01716   0.00000  -0.01716   2.25079
   A31        1.98709   0.01304   0.04714   0.00000   0.04714   2.03423
   A32        2.05020   0.00088   0.01199   0.00000   0.01195   2.06215
   A33        1.96233   0.00057  -0.00003   0.00000  -0.00006   1.96227
   A34        2.27038  -0.00141  -0.01165   0.00000  -0.01169   2.25869
    D1       -3.08155  -0.00303  -0.01636   0.00000  -0.01623  -3.09778
    D2       -0.13591   0.00119   0.00679   0.00000   0.00694  -0.12897
    D3        3.05777  -0.00130  -0.00616   0.00000  -0.00632   3.05145
    D4        1.57252   0.00531   0.03591   0.00000   0.03593   1.60845
    D5       -2.71592   0.00331   0.01807   0.00000   0.01713  -2.69878
    D6       -0.58451  -0.00236  -0.00919   0.00000  -0.00827  -0.59277
    D7        3.10326  -0.00318  -0.01733   0.00000  -0.01774   3.08552
    D8        0.97458  -0.00193  -0.01244   0.00000  -0.01284   0.96174
    D9       -1.03082  -0.00452  -0.02361   0.00000  -0.02394  -1.05476
   D10        1.07302   0.00494   0.02903   0.00000   0.02909   1.10211
   D11       -1.05566   0.00619   0.03392   0.00000   0.03399  -1.02167
   D12       -3.06105   0.00360   0.02275   0.00000   0.02289  -3.03817
   D13       -0.99998  -0.00050   0.00052   0.00000   0.00078  -0.99920
   D14       -3.12866   0.00075   0.00541   0.00000   0.00568  -3.12298
   D15        1.14912  -0.00184  -0.00576   0.00000  -0.00542   1.14370
   D16        1.28031  -0.00131  -0.00051   0.00000  -0.00086   1.27945
   D17       -2.97225   0.00186   0.00689   0.00000   0.00709  -2.96516
   D18       -0.88617   0.00799   0.04255   0.00000   0.04270  -0.84347
   D19        1.09182   0.00153   0.01500   0.00000   0.01543   1.10725
   D20       -3.13001  -0.00254  -0.01091   0.00000  -0.01100  -3.14101
   D21       -1.06085   0.00103   0.00369   0.00000   0.00330  -1.05755
   D22       -3.05741   0.00033   0.00860   0.00000   0.00903  -3.04838
   D23       -0.99605  -0.00374  -0.01731   0.00000  -0.01741  -1.01346
   D24        1.07311  -0.00017  -0.00270   0.00000  -0.00311   1.07000
   D25       -1.06045   0.00419   0.02765   0.00000   0.02815  -1.03230
   D26        1.00090   0.00011   0.00174   0.00000   0.00172   1.00262
   D27        3.07006   0.00368   0.01635   0.00000   0.01602   3.08608
   D28       -2.28657  -0.00543  -0.04228   0.00000  -0.04202  -2.32859
   D29        2.00590  -0.00559  -0.03712   0.00000  -0.03610   1.96980
   D30       -0.18278   0.00367   0.01529   0.00000   0.01401  -0.16877
   D31        2.83597   0.00376   0.02028   0.00000   0.02023   2.85621
   D32       -1.41758   0.00636   0.03610   0.00000   0.03592  -1.38166
   D33        0.79359  -0.00550  -0.02673   0.00000  -0.02651   0.76707
   D34        1.35182  -0.04729  -0.20674   0.00000  -0.19633   1.15549
   D35       -2.75396   0.03882   0.17519   0.00000   0.16478  -2.58917
   D36        2.10843   0.06199   0.26441   0.00000   0.29903   2.40746
   D37       -3.09566   0.00018   0.00181   0.00000   0.00178  -3.09388
   D38        0.04434   0.00056   0.00433   0.00000   0.00436   0.04870
   D39        3.13974   0.00044   0.00300   0.00000   0.00298  -3.14047
   D40       -0.03492   0.00274   0.01472   0.00000   0.01478  -0.02014
   D41        3.12958   0.00075   0.00386   0.00000   0.00380   3.13337
   D42       -3.11392  -0.00244  -0.01346   0.00000  -0.01341  -3.12733
         Item               Value     Threshold  Converged?
 Maximum Force            0.159205     0.000450     NO 
 RMS     Force            0.028260     0.000300     NO 
 Maximum Displacement     0.498953     0.001800     NO 
 RMS     Displacement     0.102922     0.001200     NO 
 Predicted change in Energy=-1.384571D-01
 GradGradGradGradGradGradGradGradGradGradGradGradGradGradGradGradGradGrad

                          Input orientation:                          
 ---------------------------------------------------------------------
 Center     Atomic      Atomic             Coordinates (Angstroms)
 Number     Number       Type             X           Y           Z
 ---------------------------------------------------------------------
      1          8           0       -1.978229    1.674635    2.062486
      2          7           0       -2.783232    0.889197    1.776681
      3          8           0       -3.825959    0.736493    2.217649
      4          8           0       -2.487879   -0.021487    0.837345
      5          6           0       -1.266581    0.158475    0.159753
      6          6           0       -0.160847   -0.611148    0.853054
      7          6           0        1.176526   -0.527901    0.133142
      8          8           0        1.626271    0.801748    0.119411
      9          7           0        2.081191    1.246268   -1.091892
     10          8           0        1.253992    1.346149   -2.009363
     11          8           0        2.932693    2.033351   -0.845958
     12          8           0        2.043200   -1.290992    0.920738
     13          7           0        3.194013   -1.655611    0.325866
     14          8           0        3.847481   -2.317753    0.987676
     15          8           0        3.396340   -1.274489   -0.753883
     16          8           0       -1.423388   -0.464795   -1.076621
     17          7           0       -2.210626    0.165937   -1.975421
     18          8           0       -2.713055    1.157232   -1.659217
     19          8           0       -2.283141   -0.401223   -2.965812
     20          1           0       -1.026922    1.185808    0.033187
     21          1           0       -0.448300   -1.649831    0.938592
     22          1           0       -0.052940   -0.249477    1.863906
     23          1           0        1.109391   -0.930588   -0.851320
 ---------------------------------------------------------------------
                    Distance matrix (angstroms):
                    1          2          3          4          5
     1  O    0.000000
     2  N    1.160443   0.000000
     3  O    2.078051   1.142388   0.000000
     4  O    2.153496   1.341242   2.066454   0.000000
     5  C    2.534872   2.334232   3.334585   1.408220   0.000000
     6  C    3.160760   3.159276   4.136581   2.400630   1.515135
     7  C    4.304185   4.515425   5.564954   3.765663   2.537832
     8  O    4.186871   4.711466   5.842403   4.256686   2.963785
     9  N    5.158729   5.658518   6.790240   5.119137   3.735972
    10  O    5.209137   5.553567   6.636657   4.896506   3.531136
    11  O    5.718818   6.392114   7.533055   6.036429   4.707496
    12  O    5.125468   5.364728   6.343477   4.706302   3.692520
    13  N    6.392063   6.656453   7.653823   5.934296   4.818236
    14  O    7.143757   7.407659   8.350026   6.740343   5.742020
    15  O    6.746500   7.019430   8.064469   6.223026   4.962958
    16  O    3.839141   3.438576   4.250606   2.234486   1.393440
    17  N    4.316813   3.863839   4.529533   2.832605   2.334576
    18  O    3.828674   3.447051   4.055325   2.770001   2.529517
    19  O    5.448480   4.940295   5.526568   3.827547   3.334038
    20  H    2.293903   2.492463   3.578878   2.058792   1.062482
    21  H    3.828302   3.549783   4.328869   2.611826   2.132169
    22  H    2.729171   2.959506   3.915730   2.652307   2.131546
    23  H    4.981049   5.036916   6.046107   4.076568   2.802422
                    6          7          8          9         10
     6  C    0.000000
     7  C    1.521108   0.000000
     8  O    2.393387   1.403719   0.000000
     9  N    3.501364   2.338120   1.368140   0.000000
    10  O    3.745159   2.847524   2.228597   1.239350   0.000000
    11  O    4.410217   3.256190   2.038510   1.185344   2.154947
    12  O    2.307508   1.397762   2.279367   3.238797   4.020305
    13  N    3.553015   2.319294   2.922165   3.416037   4.269372
    14  O    4.358591   3.326830   3.926696   4.488499   5.397462
    15  O    3.959274   2.504353   2.864707   2.863229   3.610211
    16  O    2.310644   2.868286   3.512129   3.900006   3.364207
    17  N    3.578509   4.049722   4.417506   4.513029   3.660277
    18  O    3.994050   4.602289   4.703152   4.828517   3.986948
    19  O    4.374007   4.646381   5.123401   5.027245   4.059484
    20  H    2.156692   2.793201   2.682233   3.306029   3.065989
    21  H    1.081114   2.132495   3.314384   4.348400   4.534769
[...]
 -0.00121896,0.00025895,0.05803766,-0.00692353,0.01030387,0.23260308,-0
 .34282829,0.20192278,-0.31735837,0.36247523,-0.00016515,0.00002749,0.0
 0016985,0.00055910,-0.00026808,-0.00054859,-0.00032790,0.00004526,0.00
 023143,-0.00044721,0.00016167,0.00038803,0.00059945,-0.00002815,-0.000
 55439,0.00078513,0.00001559,0.00092102,0.00299865,0.00427798,-0.002958
 08,-0.00259381,-0.00026739,0.00102087,0.00154537,-0.00316252,-0.001526
 55,-0.00020069,0.00090780,0.00122504,-0.00034763,0.00030750,0.00037611
 ,0.00566869,-0.00847427,0.03577343,-0.20864221,0.21540877,-0.33634879,
 0.24730526,-0.30435211,0.39544293,-0.00037726,0.00024852,0.00021537,0.
 00126382,-0.00094998,-0.00109734,-0.00071236,0.00018349,0.00046279,-0.
 00128118,0.00075216,0.00053120,0.00177197,-0.00051559,0.00066592,0.000
 85140,0.00136351,0.00137442,-0.00109064,-0.01076717,0.00585453,0.00034
 150,0.00550618,-0.00179290,-0.00517413,-0.00453472,0.00378084,0.000976
 00,0.00122336,-0.00091611,0.00263671,0.00234054,-0.00078233,-0.0290417
 5,-0.00976305,0.07407939,-0.18256652,-0.01505724,0.08489488,0.04276498
 ,0.02523118,-0.04764102,0.17564753,0.00025499,0.00009955,-0.00008997,-
 0.00064729,-0.00001368,0.00035253,0.00035202,0.00001261,-0.00018434,0.
 00031724,0.00002576,-0.00023031,-0.00067362,-0.00032977,0.00035207,-0.
 00107335,0.00004378,-0.00159562,0.00026701,-0.00748323,0.00502450,0.00
 749728,-0.00059013,-0.00223105,-0.00356898,0.00332225,-0.00162463,0.00
 078691,-0.00039328,-0.00021690,0.00140092,0.00024817,0.00003373,-0.008
 39036,0.03452913,0.00442983,-0.02486443,-0.21391064,0.20034575,0.02405
 284,-0.01929956,0.09562686,0.00298364,0.20341027,0.00003585,-0.0001539
 3,0.00005294,-0.00015479,0.00040765,0.00015947,0.00010798,-0.00008839,
 -0.00006230,0.00055881,-0.00044340,0.00009913,-0.00024741,0.00024120,-
 0.00186553,0.00238168,-0.00107550,0.00347889,-0.00860490,0.01755767,-0
 .01597581,-0.00307020,-0.00701073,0.00459008,0.00419867,-0.00183495,-0
 .00759094,-0.00054752,0.00104323,0.00364647,-0.00190864,-0.00098870,0.
 00150773,0.06821334,0.00600375,-0.04289927,0.10784564,0.19022093,-0.57
 793306,-0.04751282,0.09577766,-0.09491094,-0.12312746,-0.29796208,0.72
 349260,0.00322833,0.00197132,-0.00100406,-0.00466079,-0.00596799,0.004
 58160,0.00031568,0.00130139,-0.00015593,0.00483143,0.02381784,0.035530
 29,-0.08914003,-0.00532429,-0.03217751,-0.00821944,-0.01656895,-0.0342
 0322,0.00210507,-0.00012162,0.00081738,-0.00151794,-0.00159888,0.00065
 382,0.00316752,0.00380933,-0.00055563,-0.00264194,-0.00193873,-0.00000
 363,-0.00156107,-0.00207995,0.00004399,-0.00281042,0.00084366,-0.00058
 016,0.00354026,-0.00140638,-0.00050197,-0.00136022,0.00086368,-0.00028
 495,-0.00107850,0.00029358,0.00037729,0.21598274,0.00391001,0.00174960
 ,-0.00243114,-0.00309955,-0.00384240,-0.00107855,0.00142624,0.00053729
 ,-0.00026107,0.00360423,0.00393636,-0.00925075,0.01131266,-0.18744863,
 -0.06230629,0.00525133,0.01398260,0.02139758,-0.00149019,-0.00127081,0
 .00008675,0.00021849,0.00178281,-0.00041867,0.00050332,-0.00121738,0.0
 0137620,-0.00090354,0.00020255,-0.00051113,0.00014167,0.00046940,-0.00
 034792,0.00103448,0.00000930,-0.00005715,-0.00128210,0.00017480,0.0003
 3003,0.00045484,-0.00020967,0.00002871,0.00044699,0.00008730,-0.000245
 99,-0.10391336,0.39800727,0.00005749,-0.00661664,-0.00291969,-0.008106
 48,0.02678479,0.00444561,0.00977847,-0.00591096,-0.00508751,0.02954172
 ,-0.03967837,-0.05989020,-0.03351920,-0.08960881,-0.17108153,-0.014615
 65,-0.01605545,-0.03750824,0.00530567,0.00076356,-0.00203032,-0.002195
 91,-0.00257075,0.00279603,-0.00054832,0.00222931,-0.00688518,0.0017819
 3,-0.00012724,0.00318574,0.00028265,-0.00036318,0.00146036,-0.00269609
 ,0.00065982,0.00113144,0.00303681,-0.00068559,-0.00175596,-0.00111591,
 0.00052381,0.00014625,-0.00105771,-0.00003037,0.00112906,0.13663868,0.
 09122953,0.52302087,-0.00203421,0.00233098,0.00174086,0.00808679,-0.00
 819543,-0.00158008,-0.00567544,0.00201641,0.00213948,-0.00964133,0.007
 33916,0.01100009,-0.00808066,-0.01667101,-0.04040203,0.00287446,0.0011
 1095,0.00019677,-0.00310180,0.00005477,-0.00139362,0.00134231,0.000938
 60,-0.00017619,-0.00501412,-0.00478738,-0.00216201,0.00324823,0.001828
 49,0.00179617,0.00252875,0.00310483,0.00055458,0.00311456,-0.00085214,
 0.00029904,-0.00357215,0.00160422,0.00016043,0.00152772,-0.00102092,0.
 00045502,0.00103805,-0.00039904,-0.00004957,-0.11408852,0.03949808,-0.
 02428614,0.46243727,-0.00038727,-0.00502126,-0.00010655,-0.00321772,0.
 01161333,-0.00404533,0.00327889,-0.00271608,-0.00111322,0.01256415,-0.
 01066153,-0.00473548,-0.02285528,0.05321697,0.02805055,-0.00366013,-0.
 00857894,-0.01013294,0.00282081,0.00352049,0.00113600,-0.00130127,-0.0
 0345763,0.00134063,-0.00140595,0.00287024,-0.00476826,0.00205543,-0.00
 203663,0.00174054,-0.00016628,-0.00093347,0.00083794,-0.00129467,-0.00
 048444,-0.00029980,0.00158457,-0.00011961,0.00025986,-0.00060603,0.000
 28367,-0.00020132,-0.00056201,-0.00022104,-0.00014114,0.04556074,-0.19
 505780,-0.01120565,-0.16637600,1.07703308,-0.00174699,0.00424434,0.004
 10636,0.01068186,-0.01314986,-0.01249936,-0.00689878,0.00270083,0.0045
 2351,-0.00586319,0.00779150,0.01432251,-0.02895738,0.01518126,-0.06959
 568,-0.00096539,-0.00271324,-0.00054799,-0.00721334,-0.00053503,-0.000
 19523,0.00305014,0.00274099,-0.00284655,-0.00359052,-0.00458632,0.0052
 5756,0.00212807,0.00114018,-0.00272555,0.00107763,0.00188398,-0.001195
 44,0.00541003,-0.00129249,-0.00052767,-0.00566894,0.00185591,0.0025730
 8,0.00213328,-0.00118786,-0.00001736,0.00178188,-0.00028370,-0.0015095
 5,-0.01651092,-0.01910442,-0.15281986,0.11717101,0.39214320,0.99258951
 ,0.00110314,-0.00057410,-0.00034482,-0.00374787,0.00165871,-0.00080114
 ,0.00226563,-0.00055201,-0.00057932,0.00457912,-0.00272958,-0.00030950
 ,-0.00685745,0.00680798,0.00848320,0.00068623,0.00059968,-0.00057782,0
 .00137585,0.00011949,0.00030433,-0.00053201,-0.00052542,0.00017161,0.0
 0145728,0.00153285,0.00025959,-0.00084063,-0.00047421,-0.00035016,-0.0
 0067901,-0.00089689,-0.00005235,-0.00099922,0.00021020,-0.00004911,0.0
 0119400,-0.00050263,-0.00001266,-0.00050194,0.00032357,-0.00015885,-0.
 00034703,0.00010785,0.00000498,-0.00583659,0.05869043,-0.02307709,-0.1
 8808713,0.16427283,0.01709698,0.15256319,0.00024754,0.00280321,-0.0000
 1578,0.00106766,-0.00613560,0.00167321,-0.00142432,0.00131704,0.000525
 50,-0.00493097,0.00457164,0.00357835,0.00199497,-0.01614840,-0.0200669
 9,0.00091426,0.00314788,0.00275888,-0.00155414,-0.00213980,-0.00082293
 ,0.00075912,0.00204005,-0.00069940,0.00078410,-0.00173351,0.00267096,-
 0.00121866,0.00114873,-0.00098912,0.00009345,0.00057263,-0.00046762,0.
 00067476,0.00032831,0.00024524,-0.00084354,0.00004890,-0.00022056,0.00
 031552,-0.00014751,0.00012542,0.00029168,0.00012805,0.00012797,0.05643
 865,-0.05491582,0.03673160,0.17572975,-0.60552502,-0.10571748,-0.24198
 418,0.75707670,0.00047773,-0.00044426,-0.00094744,-0.00258078,0.002281
 49,0.00523829,0.00129885,-0.00034700,-0.00109479,-0.00208984,0.0013499
 1,-0.00544591,-0.00224516,-0.00103399,-0.00089400,0.00173002,0.0024650
 7,0.00057940,0.00181977,0.00010614,-0.00028070,-0.00078220,-0.00066301
 ,0.00086506,0.00063835,0.00097092,-0.00171422,-0.00024194,-0.00016388,
 0.00082794,-0.00016221,-0.00035250,0.00037398,-0.00135168,0.00032363,0
 .00028324,0.00136613,-0.00044342,-0.00073526,-0.00051675,0.00028236,0.
 00003095,-0.00043876,0.00005865,0.00043214,-0.02439974,0.04164265,0.02
 169627,0.02598858,-0.12810310,-0.19162744,-0.01348352,0.18628663,0.204
 43324,0.00043329,-0.00063040,-0.00047929,-0.00219707,0.00266405,0.0014
 0737,0.00155426,-0.00056555,-0.00074119,0.00226994,-0.00218912,-0.0036
 4295,0.00020478,0.01003818,0.00491412,-0.00022386,-0.00154831,-0.00162
 809,0.00110881,0.00010359,0.00011015,-0.00041925,-0.00038049,0.0001995
 6,0.00097811,0.00107902,-0.00006668,-0.00047357,-0.00036968,-0.0001605
 6,-0.00051347,-0.00063158,-0.00000340,-0.00094936,0.00025801,0.0000404
 7,0.00106877,-0.00048940,-0.00007206,-0.00046787,0.00031776,-0.0001334
 8,-0.00031766,0.00011104,0.00003477,0.00161099,-0.01327022,-0.06917224
 ,-0.14691794,-0.02683534,-0.08298563,0.04549309,0.01128628,0.01779749,
 0.09802565,0.00031497,0.00095757,-0.00043227,-0.00069822,-0.00134388,0
 .00246285,0.00017144,0.00033261,-0.00029526,-0.00193358,0.00137991,-0.
 00104714,0.00444028,-0.00449253,-0.00229956,0.00057942,0.00122085,0.00
 093216,0.00028327,-0.00079576,-0.00036665,-0.00003825,0.00050734,0.000
 07216,0.00051588,-0.00035105,0.00024582,-0.00051734,0.00038636,0.00006
 371,0.00000811,0.00014472,-0.00000821,-0.00039630,0.00031180,0.0001851
 1,0.00031988,-0.00022509,-0.00043072,-0.00012788,0.00009432,0.00005729
 ,-0.00008879,0.00009681,0.00025147,0.00408378,0.03686330,0.02108038,-0
 .04019744,-0.31013910,-0.28173096,0.01123279,-0.08925511,-0.10918057,0
 .02115393,0.36346111,0.00111588,-0.00063747,-0.00159727,-0.00474575,0.
 00370709,0.00532619,0.00285785,-0.00078819,-0.00180673,0.00280181,-0.0
 0199460,-0.00515994,-0.00765515,0.01254121,0.01343440,0.00081758,-0.00
 301749,-0.00431184,0.00356469,0.00001880,-0.00068706,-0.00134130,-0.00
 109727,0.00153014,0.00129400,0.00161826,-0.00284338,-0.00068059,-0.000
 16112,0.00153991,-0.00026693,-0.00056052,0.00066621,-0.00257408,0.0007
 1781,0.00057558,0.00262133,-0.00083179,-0.00146638,-0.00098718,0.00053
 345,0.00007524,-0.00084251,0.00012114,0.00087958,-0.05207023,-0.017939
 49,-0.10785384,-0.09514907,-0.25400000,-0.59374600,0.01688262,-0.10912
 839,-0.02854849,0.13486221,0.36949567,0.72533818,0.00198536,0.00386742
 ,0.00078767,-0.00044837,-0.00886843,-0.00324413,0.00025827,0.00137442,
 0.00035265,-0.02372129,-0.03454692,0.01801685,-0.07797128,-0.05219062,
 0.00510377,0.01091372,0.02669016,-0.00225911,0.00154568,0.00229073,-0.
 00008886,-0.00008118,-0.00128239,-0.00001420,-0.00220564,-0.00045214,0
 .00039616,0.00033531,-0.00016975,0.00017753,0.00012837,0.00019381,0.00
 008563,-0.00009567,-0.00047158,0.00008013,0.00023357,0.00007130,-0.000
 26946,-0.00000827,-0.00004360,0.00008763,-0.00015233,-0.00014631,0.000
 25594,0.00253566,-0.00654653,-0.00192938,0.00034310,-0.00303902,-0.000
 48091,-0.00178338,0.00171206,-0.00197860,0.00016154,0.00116913,0.00124
 735,0.09209349,0.00500283,-0.00194975,-0.00594547,-0.00225804,-0.00118
 646,-0.00021733,0.00066702,0.00021640,-0.00002193,-0.00190620,0.003749
 67,0.00161958,-0.07039155,-0.37202071,0.04768792,-0.00137567,-0.009889
 41,0.00171451,0.00051057,-0.00144962,0.00034378,-0.00108725,0.00059721
 ,0.00017167,0.00149641,0.00192786,0.00008258,-0.00115618,-0.00040547,0
 .00011000,-0.00058138,-0.00090417,-0.00012349,-0.00023175,0.00009049,-
 0.00005177,0.00034314,-0.00018357,0.00003246,-0.00015364,0.00010789,-0
 .00006465,-0.00008567,0.00009403,-0.00004460,-0.00295520,-0.01286766,-
 0.00905202,0.00166637,-0.00487302,-0.00018416,0.00288037,0.00247296,0.
 00493028,-0.00027534,0.00101759,0.00053898,0.06868967,0.39476264,0.000
 17192,-0.00467469,-0.00407706,0.00285933,0.00557940,0.00323189,-0.0015
 8455,-0.00108795,-0.00006581,0.01330784,0.01899130,-0.00607058,0.01035
 929,0.05324832,-0.06876968,0.00306654,0.01644245,0.00156263,0.00049333
 ,0.00072363,-0.00016209,0.00032098,-0.00035270,-0.00033348,0.00103382,
 0.00009496,0.00193408,-0.00069599,0.00009816,-0.00099895,-0.00032231,-
 0.00036758,-0.00029061,-0.00033792,-0.00001295,0.00005520,0.00023877,-
 0.00013231,-0.00013691,-0.00010450,0.00006501,-0.00000090,-0.00008705,
 0.00000139,0.00010859,-0.01307889,-0.04569949,-0.01056765,0.00372035,-
 0.00638872,0.00426335,-0.00320038,0.00362957,-0.00277174,-0.00022718,0
 .00130744,-0.00029365,-0.01370754,-0.04233203,0.08393292,-0.00059646,-
 0.00048823,0.00013959,0.00106007,0.00077988,0.00038901,-0.00029474,-0.
 00013162,-0.00008247,0.00213757,-0.00138320,-0.00011650,0.00921519,0.0
 3314312,-0.00287197,-0.08619887,-0.07838690,0.00678781,-0.00486020,-0.
 03156836,-0.00178044,-0.00614311,-0.00451353,0.00624704,-0.00194922,0.
 00133182,-0.00399248,0.00073081,0.00006070,0.00110545,-0.00037200,-0.0
 0138972,0.00105428,0.00069810,-0.00020810,-0.00034242,-0.00039680,0.00
 016373,0.00099187,0.00009738,-0.00002181,-0.00022664,0.00021333,0.0002
 6846,-0.00070388,0.00125336,-0.00080868,0.00177041,-0.00033912,0.00118
 560,0.00082351,-0.00034768,-0.00057426,-0.00089873,0.00007031,-0.00029
 596,-0.00021003,-0.00456396,0.00108408,-0.00281239,0.09083468,0.000615
 38,0.00050658,0.00012928,-0.00080816,-0.00093557,-0.00045040,0.0003154
 9,0.00016814,-0.00001316,-0.00041594,0.00201320,-0.00031583,-0.0055523
 9,-0.02079424,0.00186078,-0.07944511,-0.33497128,0.01747944,-0.0000126
 9,-0.00100357,-0.00029812,0.00072888,0.00123337,0.00037459,0.00023751,
 0.00023195,-0.00011959,-0.00008104,0.00005692,0.00002879,-0.00001207,0
 .00004127,-0.00003776,0.00183848,0.00065603,-0.00010069,-0.00077637,0.
 00069629,0.00030437,0.00007470,-0.00011333,0.00000893,0.00016282,0.000
 01314,-0.00027841,-0.00088804,0.00156291,-0.00173246,0.00086888,-0.000
 88769,0.00033743,-0.00019596,0.00084657,0.00022783,-0.00013997,0.00014
 409,-0.00000448,0.00255919,0.00035363,0.00131496,0.08404874,0.35905780
 ,0.00054286,0.00001838,0.00026785,-0.00040364,-0.00079064,-0.00000701,
 0.00027018,0.00015002,-0.00017769,0.00053396,-0.00131977,-0.00012820,0
 .00509278,0.02065771,-0.00300397,0.00574580,0.01310114,-0.06231159,0.0
 0288292,0.01842320,-0.00073173,0.00411999,0.00201970,-0.00176810,0.000
 36593,-0.00029871,0.00164965,-0.00008451,-0.00016697,-0.00032671,0.000
 12964,0.00053623,-0.00042698,-0.00141117,0.00003014,0.00058377,0.00010
 406,-0.00030055,-0.00008812,-0.00010008,0.00014801,-0.00006658,-0.0000
 2600,-0.00000330,-0.00007004,0.00115899,0.00040285,0.00178321,-0.00077
 095,0.00130828,-0.00021370,0.00009613,-0.00088092,-0.00043068,0.000195
 70,-0.00029954,0.00016146,-0.00267238,0.00070481,-0.00096434,-0.005653
 47,-0.02019349,0.05984056,0.00092816,0.00045617,0.00074336,-0.00272927
 ,-0.00040146,-0.00073663,0.00059872,0.00030024,-0.00013954,0.00189037,
 -0.00089707,0.00126810,-0.00135683,-0.01306479,-0.02433849,-0.06714046
 ,-0.01275988,-0.03337409,0.00428892,0.01500392,0.03839044,0.00184578,0
 .00112417,-0.00190875,0.00095236,0.00032547,0.00065198,-0.00022351,-0.
 00059567,-0.00045239,-0.00021903,0.00003989,-0.00016730,0.00248629,-0.
 00100716,-0.00036191,-0.00019525,-0.00101340,0.00146481,-0.00002223,0.
 00026218,-0.00037804,-0.00074943,0.00057418,-0.00094583,-0.00499793,0.
 00464222,-0.00545810,0.00101759,-0.00257096,0.00060427,-0.00046696,0.0
 0098474,0.00002663,-0.00064796,0.00019435,-0.00152968,0.00068565,-0.00
 000813,0.00074805,-0.00105909,-0.00260556,-0.00940229,0.07127283,-0.00
 062939,-0.00118005,-0.00046236,0.00181493,0.00174026,0.00020538,-0.000
 83293,-0.00039381,0.00028433,-0.00156843,0.00008163,-0.00045872,0.0004
 1651,0.00877274,0.01933922,-0.01196643,-0.10246101,-0.10480716,-0.0005
 4367,0.00037780,0.00383783,0.00067618,0.00096422,0.00053299,0.00025398
 ,-0.00016930,0.00087604,-0.00019285,-0.00006571,-0.00035494,0.00000599
 ,0.00009334,-0.00020049,0.00043026,-0.00000171,-0.00054089,0.00027756,
 -0.00005543,-0.00014566,0.00001960,-0.00003751,0.00010887,-0.00024404,
 -0.00008903,0.00031699,0.00434587,-0.00266582,0.00364812,0.00006711,0.
 00218317,0.00007214,0.00001117,-0.00045297,-0.00012861,0.00035588,-0.0
 0022619,0.00102682,-0.00082393,0.00043040,-0.00038838,-0.00301223,-0.0
 0917631,-0.03308100,0.01188106,0.10167817,0.00140957,-0.00007549,0.000
 23616,-0.00202878,-0.00055604,0.00020398,0.00066464,0.00026751,-0.0002
 4256,0.00128200,-0.00004412,0.00197103,-0.00016944,-0.00755749,-0.0157
 0645,-0.03315515,-0.09889346,-0.31289822,-0.00110802,-0.00736601,-0.01
 882850,-0.00100908,-0.00041399,0.00204867,-0.00058789,0.00039587,-0.00
 132219,0.00041284,0.00018415,0.00071274,0.00007877,-0.00012227,0.00025
 840,-0.00126623,0.00081342,0.00123945,0.00078518,0.00029012,-0.0005190
 3,-0.00007466,-0.00008972,0.00006239,-0.00000373,-0.00019300,0.0005141
 1,-0.00262235,0.00272517,-0.00189799,0.00055822,-0.00165112,0.00078453
 ,-0.00016893,0.00058168,0.00003750,-0.00025898,0.00014419,-0.00058286,
 0.00001152,0.00021069,0.00040144,0.00033367,0.00117607,0.00635509,0.03
 437576,0.10975689,0.33682618,-0.00032240,-0.00004225,-0.00019346,0.000
 65288,0.00017901,0.00014203,-0.00013400,-0.00008962,0.00000669,0.00011
 143,-0.00018250,-0.00072674,0.00124131,0.00047806,0.00254842,0.0064675
 3,0.01002239,0.03123826,-0.06697433,-0.00078457,0.00014565,-0.00171361
 ,-0.01595062,-0.01452458,0.00059265,0.00024777,-0.00468444,0.00057449,
 0.00125804,0.00120772,-0.00019993,-0.00025013,0.00046737,-0.00725875,0
 .00206154,-0.03198942,0.00368284,-0.00059790,-0.00566846,0.00019037,-0
 .00038229,0.00154330,-0.00461652,0.00049541,0.00285807,-0.00065764,0.0
 0017918,-0.00041561,-0.00100643,0.00095489,-0.00107667,0.00030937,-0.0
 0076445,0.00002635,0.00014845,-0.00017345,-0.00001281,-0.00018835,0.00
 012554,-0.00016151,0.00081045,-0.00051676,-0.00071446,-0.00615873,-0.0
 0074222,0.00254105,0.07444892,-0.00002445,0.00006676,0.00001791,0.0001
 0284,-0.00013330,-0.00007547,-0.00002738,0.00002546,0.00002805,-0.0001
 5287,0.00003886,0.00003235,0.00030610,-0.00002785,-0.00048724,0.000662
 69,0.00413339,0.00277931,-0.00583599,-0.08634527,-0.08489815,-0.010345
 50,-0.02854801,-0.03503851,-0.00276893,0.00131176,-0.01083753,0.001870
 73,-0.00123713,0.00649845,0.00134902,0.00062747,0.00180873,0.01305934,
 0.00229600,0.03311120,-0.00496265,0.00134838,0.00306772,0.00092365,-0.
 00077396,-0.00028966,0.00183417,0.00021952,-0.00168071,-0.00056646,0.0
 0013048,-0.00001344,0.00034076,-0.00000769,0.00039376,-0.00001296,-0.0
 0004894,-0.00006521,-0.00004236,-0.00008966,-0.00015840,-0.00003666,-0
 .00009095,-0.00005978,0.00071649,0.00030009,-0.00016556,-0.00086451,0.
 00065312,0.00041696,0.00447492,0.10615145,-0.00003220,0.00006500,0.000
 06425,0.00014052,-0.00019405,-0.00021714,-0.00010037,0.00004675,0.0000
 7345,-0.00014426,0.00006663,0.00015157,0.00063692,-0.00031099,-0.00045
 469,0.00096009,-0.00313621,-0.00843953,-0.01749916,-0.09260862,-0.3647
 1632,0.00047441,-0.00182395,0.00419962,-0.00113485,-0.00041357,-0.0006
 4183,0.00179275,0.00741873,-0.00332905,-0.00004659,0.00005999,0.000053
 61,-0.00759064,0.00526028,-0.01522634,0.00138596,0.00118654,-0.0045985
 4,0.00011997,-0.00066028,0.00106864,0.00417171,-0.00170120,0.00272665,
 -0.00165284,0.00043259,-0.00049688,0.00018906,0.00007560,0.00164699,-0
 .00013378,0.00007418,-0.00030732,0.00000988,-0.00020737,-0.00062944,0.
 00004174,-0.00010978,0.00001332,0.00004879,0.00030193,0.00007384,0.000
 91965,0.00056259,0.00034611,0.01744324,0.08561521,0.38863903||-0.00000
 230,0.00000378,-0.00000107,-0.00000280,-0.00000632,0.00001122,0.000008
 41,0.00000223,-0.00000807,-0.00000382,0.00000183,-0.00000173,0.0000009
 9,-0.00000036,-0.00000536,-0.00000027,0.00000347,-0.00000313,0.0000077
 6,-0.00002867,0.00000723,0.00000052,0.00001458,0.00000752,0.00001045,0
 .00000583,0.00002202,-0.00001475,-0.00000466,-0.00002771,0.00000482,0.
 00000228,-0.00000092,-0.00001582,-0.00000136,-0.00001180,0.00002561,0.
 00003152,0.00001372,-0.00001067,-0.00000632,-0.00001011,-0.00000350,-0
 .00001626,-0.00000189,-0.00000194,0.00000391,-0.00000396,0.00000472,-0
 .00000903,0.00000240,-0.00000183,0.00000252,-0.00000107,-0.00000059,0.
 00000316,0.00000408,0.00000062,-0.00000124,0.00000129,-0.00000122,-0.0
 0000086,0.00000300,-0.00000021,-0.00000147,0.00000286,-0.00000419,0.00
 000146,0.00000148|||@
 The archive entry for this job was punched.


 BREAD HAS TO MOLD IN ORDER TO GET PENICILLIN.
          -- JERRY BOATZ
 Job cpu time:       0 days  0 hours  1 minutes 25.0 seconds.
 Elapsed time:       0 days  0 hours  1 minutes 22.8 seconds.
 File lengths (MBytes):  RWF=    251 Int=      0 D2E=      0 Chk=      8 Scr=      1
 Normal termination of Gaussian 16 at Tue Jun 11 17:59:42 2024.
