 Entering Link 1 = C:\G16W\l1.exe PID=      7980.
  
 Copyright (c) 1988-2019, Gaussian, Inc.  All Rights Reserved.
  
 This is part of the Gaussian(R) 16 program.  It is based on
 the Gaussian(R) 09 system (copyright 2009, Gaussian, Inc.),
 the Gaussian(R) 03 system (copyright 2003, Gaussian, Inc.),
 the Gaussian(R) 98 system (copyright 1998, Gaussian, Inc.),
 the Gaussian(R) 94 system (copyright 1995, Gaussian, Inc.),
 the Gaussian 92(TM) system (copyright 1992, Gaussian, Inc.),
 the Gaussian 90(TM) system (copyright 1990, Gaussian, Inc.),
 the Gaussian 88(TM) system (copyright 1988, Gaussian, Inc.),
 the Gaussian 86(TM) system (copyright 1986, Carnegie Mellon
 University), and the Gaussian 82(TM) system (copyright 1983,
 Carnegie Mellon University). Gaussian is a federally registered
 trademark of Gaussian, Inc.
  
 This software contains proprietary and confidential information,
 including trade secrets, belonging to Gaussian, Inc.
  
 This software is provided under written license and may be
 used, copied, transmitted, or stored only in accord with that
 written license.
  
 The following legend is applicable only to US Government
 contracts under FAR:
  
                    RESTRICTED RIGHTS LEGEND
  
 Use, reproduction and disclosure by the US Government is
 subject to restrictions as set forth in subparagraphs (a)
 and (c) of the Commercial Computer Software - Restricted
 Rights clause in FAR 52.227-19.
  
 Gaussian, Inc.
 340 Quinnipiac St., Bldg. 40, Wallingford CT 06492
  
  
 ---------------------------------------------------------------
 Warning -- This program may not be used in any manner that
 competes with the business of Gaussian, Inc. or will provide
 assistance to any competitor of Gaussian, Inc.  The licensee
 of this program is prohibited from giving any competitor of
 Gaussian, Inc. access to this program.  By using this program,
 the user acknowledges that Gaussian, Inc. is engaged in the
 business of creating and licensing software in the field of
 computational chemistry and represents and warrants to the
 licensee that it is not a competitor of Gaussian, Inc. and that
 it will not use this program in any manner prohibited above.
 ---------------------------------------------------------------
  

 Cite this work as:
 Gaussian 16, Revision C.01,
 M. J. Frisch, G. W. Trucks, H. B. Schlegel, G. E. Scuseria, 
 M. A. Robb, J. R. Cheeseman, G. Scalmani, V. Barone, 
 G. A. Petersson, H. Nakatsuji, X. Li, M. Caricato, A. V. Marenich, 
 J. Bloino, B. G. Janesko, R. Gomperts, B. Mennucci, H. P. Hratchian, 
 J. V. Ortiz, A. F. Izmaylov, J. L. Sonnenberg, D. Williams-Young, 
 F. Ding, F. Lipparini, F. Egidi, J. Goings, B. Peng, A. Petrone, 
 T. Henderson, D. Ranasinghe, V. G. Zakrzewski, J. Gao, N. Rega, 
 G. Zheng, W. Liang, M. Hada, M. Ehara, K. Toyota, R. Fukuda, 
 J. Hasegawa, M. Ishida, T. Nakajima, Y. Honda, O. Kitao, H. Nakai, 
 T. Vreven, K. Throssell, J. A. Montgomery, Jr., J. E. Peralta, 
 F. Ogliaro, M. J. Bearpark, J. J. Heyd, E. N. Brothers, K. N. Kudin, 
 V. N. Staroverov, T. A. Keith, R. Kobayashi, J. Normand, 
 K. Raghavachari, A. P. Rendell, J. C. Burant, S. S. Iyengar, 
 J. Tomasi, M. Cossi, J. M. Millam, M. Klene, C. Adamo, R. Cammi, 
 J. W. Ochterski, R. L. Martin, K. Morokuma, O. Farkas, 
 J. B. Foresman, and D. J. Fox, Gaussian, Inc., Wallingford CT, 2019.
 
 ******************************************
 Gaussian 16:  EM64W-G16RevC.01 30-May-2019
                11-Jun-2024 
 ******************************************
 %nprocshared=24
 Will use up to   24 processors via shared memory.
 %mem=120GB
 ----------------------
 # HF/6-31G(d) Opt Freq
 ----------------------
 1/18=20,19=15,38=1/1,3;
 2/9=110,12=2,17=6,18=5,40=1/2;
 3/5=1,6=6,7=1,11=9,25=1,30=1,71=1/1,2,3;
 4//1;
 5/5=2,38=5/2;
 6/7=2,8=2,9=2,10=2,28=1/1;
 7//1,2,3,16;
 1/18=20,19=15/3(2);
 2/9=110/2;
 99//99;
 2/9=110/2;
 3/5=1,6=6,7=1,11=9,25=1,30=1,71=1/1,2,3;
 4/5=5,16=3,69=1/1;
 5/5=2,38=5/2;
 7//1,2,3,16;
 1/18=20,19=15/3(-5);
 2/9=110/2;
 6/7=2,8=2,9=2,10=2,19=2,28=1/1;
 99/9=1/99;
 ----------------------------------------------------------------------
 O=[N+1]([O-1])OC(O[N+1]([O-1])=O)(CO[N+1]([O-1])=O)O[N+1]([O-1])=O geo
 metry optimization
 ----------------------------------------------------------------------
 Symbolic Z-matrix:
 Charge =  0 Multiplicity = 1
 O                     0.21338  -2.69379  -0.07795 
 N                     0.13968  -2.47333   1.12696 
 O                     0.32033  -3.22434   2.07908 
 O                    -0.18012  -1.16526   1.52447 
 C                    -0.32236  -0.18603   0.46186 
 O                    -1.12631  -0.60172  -0.64622 
 N                    -2.45153  -0.91644  -0.30205 
 O                    -2.76729  -0.768     0.87678 
 O                    -3.11295  -1.31474  -1.25469 
 C                     1.13507   0.09529  -0.05568 
 O                     1.16314   1.12562  -1.04208 
 N                     2.47382   1.40759  -1.49951 
 O                     2.50104   2.28582  -2.35575 
 O                     3.39011   0.76715  -0.98424 
 O                    -0.72419   1.01169   1.17026 
 N                    -1.20315   2.08211   0.40022 
 O                    -1.33782   3.10758   1.05989 
 O                    -1.42554   1.87461  -0.78768 
 H                     1.74927   0.39434   0.80497 
 H                     1.56542  -0.80814  -0.49863 
 

 GradGradGradGradGradGradGradGradGradGradGradGradGradGradGradGradGradGrad
 Berny optimization.
 Initialization pass.
                           ----------------------------
                           !    Initial Parameters    !
                           ! (Angstroms and Degrees)  !
 --------------------------                            --------------------------
 ! Name  Definition              Value          Derivative Info.                !
 --------------------------------------------------------------------------------
 ! R1    R(1,2)                  1.2271         estimate D2E/DX2                !
 ! R2    R(2,3)                  1.226          estimate D2E/DX2                !
 ! R3    R(2,4)                  1.404          estimate D2E/DX2                !
 ! R4    R(4,5)                  1.452          estimate D2E/DX2                !
 ! R5    R(5,6)                  1.4307         estimate D2E/DX2                !
 ! R6    R(5,10)                 1.572          estimate D2E/DX2                !
 ! R7    R(5,15)                 1.4484         estimate D2E/DX2                !
 ! R8    R(6,7)                  1.4049         estimate D2E/DX2                !
 ! R9    R(7,8)                  1.2294         estimate D2E/DX2                !
 ! R10   R(7,9)                  1.2262         estimate D2E/DX2                !
 ! R11   R(10,11)                1.4267         estimate D2E/DX2                !
 ! R12   R(10,19)                1.0988         estimate D2E/DX2                !
 ! R13   R(10,20)                1.0943         estimate D2E/DX2                !
 ! R14   R(11,12)                1.4166         estimate D2E/DX2                !
 ! R15   R(12,13)                1.2269         estimate D2E/DX2                !
 ! R16   R(12,14)                1.231          estimate D2E/DX2                !
 ! R17   R(15,16)                1.4029         estimate D2E/DX2                !
 ! R18   R(16,17)                1.2267         estimate D2E/DX2                !
 ! R19   R(16,18)                1.2262         estimate D2E/DX2                !
 ! A1    A(1,2,3)              130.0626         estimate D2E/DX2                !
 ! A2    A(1,2,4)              117.3254         estimate D2E/DX2                !
 ! A3    A(3,2,4)              112.6049         estimate D2E/DX2                !
 ! A4    A(2,4,5)              116.3229         estimate D2E/DX2                !
 ! A5    A(4,5,6)              115.2074         estimate D2E/DX2                !
 ! A6    A(4,5,10)             105.7121         estimate D2E/DX2                !
 ! A7    A(4,5,15)             103.1167         estimate D2E/DX2                !
 ! A8    A(6,5,10)             108.5411         estimate D2E/DX2                !
 ! A9    A(6,5,15)             117.5918         estimate D2E/DX2                !
 ! A10   A(10,5,15)            105.6793         estimate D2E/DX2                !
 ! A11   A(5,6,7)              113.9165         estimate D2E/DX2                !
 ! A12   A(6,7,8)              116.7527         estimate D2E/DX2                !
 ! A13   A(6,7,9)              113.0319         estimate D2E/DX2                !
 ! A14   A(8,7,9)              130.2122         estimate D2E/DX2                !
 ! A15   A(5,10,11)            112.0316         estimate D2E/DX2                !
 ! A16   A(5,10,19)            108.0033         estimate D2E/DX2                !
 ! A17   A(5,10,20)            110.4948         estimate D2E/DX2                !
 ! A18   A(11,10,19)           109.5115         estimate D2E/DX2                !
 ! A19   A(11,10,20)           107.9758         estimate D2E/DX2                !
 ! A20   A(19,10,20)           108.7771         estimate D2E/DX2                !
 ! A21   A(10,11,12)           112.6577         estimate D2E/DX2                !
 ! A22   A(11,12,13)           112.854          estimate D2E/DX2                !
 ! A23   A(11,12,14)           116.7442         estimate D2E/DX2                !
 ! A24   A(13,12,14)           130.3955         estimate D2E/DX2                !
 ! A25   A(5,15,16)            117.2074         estimate D2E/DX2                !
 ! A26   A(15,16,17)           112.3423         estimate D2E/DX2                !
 ! A27   A(15,16,18)           117.6797         estimate D2E/DX2                !
 ! A28   A(17,16,18)           129.9775         estimate D2E/DX2                !
 ! D1    D(1,2,3,4)            178.9938         estimate D2E/DX2                !
 ! D2    D(1,2,4,5)             -3.1469         estimate D2E/DX2                !
 ! D3    D(3,2,4,5)            175.9863         estimate D2E/DX2                !
 ! D4    D(2,4,5,6)             47.2162         estimate D2E/DX2                !
 ! D5    D(2,4,5,10)           -72.6196         estimate D2E/DX2                !
 ! D6    D(2,4,5,15)           176.6596         estimate D2E/DX2                !
 ! D7    D(4,5,6,7)             60.2342         estimate D2E/DX2                !
 ! D8    D(10,5,6,7)           178.5003         estimate D2E/DX2                !
 ! D9    D(15,5,6,7)           -61.7042         estimate D2E/DX2                !
 ! D10   D(4,5,10,11)         -175.4578         estimate D2E/DX2                !
 ! D11   D(4,5,10,19)          -54.7695         estimate D2E/DX2                !
 ! D12   D(4,5,10,20)           64.0991         estimate D2E/DX2                !
 ! D13   D(6,5,10,11)           60.4173         estimate D2E/DX2                !
 ! D14   D(6,5,10,19)         -178.8944         estimate D2E/DX2                !
 ! D15   D(6,5,10,20)          -60.0258         estimate D2E/DX2                !
 ! D16   D(15,5,10,11)         -66.5637         estimate D2E/DX2                !
 ! D17   D(15,5,10,19)          54.1245         estimate D2E/DX2                !
 ! D18   D(15,5,10,20)         172.9932         estimate D2E/DX2                !
 ! D19   D(4,5,15,16)         -167.6008         estimate D2E/DX2                !
 ! D20   D(6,5,15,16)          -39.6346         estimate D2E/DX2                !
 ! D21   D(10,5,15,16)          81.6542         estimate D2E/DX2                !
 ! D22   D(5,6,7,8)              1.7959         estimate D2E/DX2                !
 ! D23   D(5,6,7,9)           -177.622          estimate D2E/DX2                !
 ! D24   D(6,7,8,9)           -179.2984         estimate D2E/DX2                !
 ! D25   D(5,10,11,12)         178.8782         estimate D2E/DX2                !
 ! D26   D(19,10,11,12)         59.0683         estimate D2E/DX2                !
 ! D27   D(20,10,11,12)        -59.2254         estimate D2E/DX2                !
 ! D28   D(10,11,12,13)        179.4535         estimate D2E/DX2                !
 ! D29   D(10,11,12,14)         -1.369          estimate D2E/DX2                !
 ! D30   D(11,12,13,14)        179.0355         estimate D2E/DX2                !
 ! D31   D(5,15,16,17)        -170.3356         estimate D2E/DX2                !
 ! D32   D(5,15,16,18)           9.913          estimate D2E/DX2                !
 ! D33   D(15,16,17,18)       -179.7127         estimate D2E/DX2                !
 --------------------------------------------------------------------------------
 Trust Radius=3.00D-01 FncErr=1.00D-07 GrdErr=1.00D-07 EigMax=2.50D+02 EigMin=1.00D-04
 Number of steps in this run=     90 maximum allowed number of steps=    120.
 GradGradGradGradGradGradGradGradGradGradGradGradGradGradGradGradGradGrad

                          Input orientation:                          
 ---------------------------------------------------------------------
 Center     Atomic      Atomic             Coordinates (Angstroms)
 Number     Number       Type             X           Y           Z
 ---------------------------------------------------------------------
      1          8           0        0.213382   -2.693789   -0.077948
      2          7           0        0.139675   -2.473334    1.126959
      3          8           0        0.320335   -3.224337    2.079076
      4          8           0       -0.180116   -1.165263    1.524468
      5          6           0       -0.322363   -0.186030    0.461856
      6          8           0       -1.126311   -0.601725   -0.646222
      7          7           0       -2.451529   -0.916441   -0.302051
      8          8           0       -2.767293   -0.767995    0.876782
      9          8           0       -3.112946   -1.314737   -1.254693
     10          6           0        1.135065    0.095285   -0.055684
     11          8           0        1.163139    1.125618   -1.042085
     12          7           0        2.473820    1.407587   -1.499506
     13          8           0        2.501042    2.285822   -2.355748
     14          8           0        3.390111    0.767149   -0.984236
     15          8           0       -0.724189    1.011693    1.170255
     16          7           0       -1.203154    2.082114    0.400224
     17          8           0       -1.337823    3.107579    1.059890
     18          8           0       -1.425538    1.874609   -0.787681
     19          1           0        1.749270    0.394336    0.804970
     20          1           0        1.565422   -0.808141   -0.498628
 ---------------------------------------------------------------------
                    Distance matrix (angstroms):
                    1          2          3          4          5
     1  O    0.000000
     2  N    1.227125   0.000000
     3  O    2.223887   1.226039   0.000000
     4  O    2.249215   1.404040   2.190395   0.000000
     5  C    2.620546   2.426438   3.501396   1.451990   0.000000
     6  O    2.548420   2.872249   4.049461   2.434082   1.430724
     7  N    3.211065   3.343699   4.321965   2.925304   2.377057
     8  O    3.674863   3.379532   4.124630   2.696443   2.547260
     9  O    3.788268   4.194539   5.152476   4.043213   3.465238
    10  C    2.937504   2.997875   4.029998   2.411548   1.571968
    11  O    4.052094   4.324891   5.419785   3.693191   2.487764
    12  N    4.894046   5.235274   6.236864   4.775704   3.768978
    13  O    5.934500   6.352549   7.401690   5.844200   4.692607
    14  O    4.784460   5.052050   5.894011   4.772245   4.096607
    15  O    4.020901   3.590759   4.456561   2.271700   1.448391
    16  N    5.004445   4.804523   5.770441   3.585525   2.433941
    17  O    6.112019   5.773568   6.624303   4.451212   3.498095
    18  O    4.905103   5.002034   6.104558   4.017204   2.650391
    19  H    3.560198   3.304240   4.093898   2.583129   2.178581
    20  H    2.358103   2.729131   3.746039   2.695803   2.207551
                    6          7          8          9         10
     6  O    0.000000
     7  N    1.404885   0.000000
     8  O    2.244996   1.229386   0.000000
     9  O    2.196666   1.226230   2.227462   0.000000
    10  C    2.438931   3.734695   4.104040   4.633723   0.000000
    11  O    2.895168   4.217045   4.766142   4.928026   1.426660
    12  N    4.210270   5.576205   6.152168   6.219561   2.366225
    13  O    4.941468   6.245008   6.894230   6.759676   3.457548
    14  O    4.731399   6.117565   6.613144   6.833531   2.529593
    15  O    2.462602   2.978102   2.725379   4.122962   2.408227
    16  N    2.881657   3.323095   3.285843   4.233752   3.102033
    17  O    4.088336   4.391806   4.134850   5.297663   4.053837
    18  O    2.498355   3.013047   3.399133   3.638321   3.202889
    19  H    3.371508   4.537658   4.664280   5.550161   1.098820
    20  H    2.703668   4.023216   4.545964   4.766068   1.094343
                   11         12         13         14         15
    11  O    0.000000
    12  N    1.416555   0.000000
    13  O    2.204943   1.226861   0.000000
    14  O    2.256380   1.230956   2.231111   0.000000
    15  O    2.910229   4.184688   4.945525   4.650709   0.000000
    16  N    2.931635   4.193340   4.621466   4.974328   1.402910
    17  O    3.821161   4.895824   5.203725   5.657686   2.186656
    18  O    2.706835   3.991215   4.248054   4.945257   2.251673
    19  H    2.071216   2.619592   3.759391   2.456137   2.575376
    20  H    2.048561   2.595457   3.727853   2.459033   3.367386
                   16         17         18         19         20
    16  N    0.000000
    17  O    1.226732   0.000000
    18  O    1.226227   2.222932   0.000000
    19  H    3.424795   4.117864   3.848006   0.000000
    20  H    4.102015   5.117682   4.028218   1.783009   0.000000
 Stoichiometry    C2H2N4O12
 Framework group  C1[X(C2H2N4O12)]
 Deg. of freedom    54
 Full point group                 C1      NOp   1
 Largest Abelian subgroup         C1      NOp   1
 Largest concise Abelian subgroup C1      NOp   1
                         Standard orientation:                         
 ---------------------------------------------------------------------
 Center     Atomic      Atomic             Coordinates (Angstroms)
 Number     Number       Type             X           Y           Z
 ---------------------------------------------------------------------
      1          8           0        1.541862   -2.130919    0.779300
      2          7           0        1.875597   -1.990904   -0.393241
      3          8           0        2.601822   -2.685746   -1.095354
      4          8           0        1.352839   -0.886369   -1.084657
      5          6           0        0.409394   -0.057923   -0.355366
      6          8           0        0.812700    0.303589    0.968879
      7          7           0        2.010043    1.036744    1.019416
      8          8           0        2.540221    1.305498   -0.056722
      9          8           0        2.364724    1.297932    2.163803
     10          6           0       -0.914073   -0.901033   -0.262187
     11          8           0       -1.975236   -0.165959    0.345233
     12          7           0       -3.181929   -0.904831    0.412971
     13          8           0       -4.094143   -0.279846    0.944430
     14          8           0       -3.165834   -2.037323   -0.069164
     15          8           0        0.125533    1.014579   -1.286494
     16          7           0       -0.554319    2.135170   -0.786261
     17          8           0       -0.914658    2.897944   -1.676881
     18          8           0       -0.697691    2.218966    0.428669
     19          1           0       -1.204744   -1.190620   -1.281527
     20          1           0       -0.750031   -1.807662    0.328323
 ---------------------------------------------------------------------
 Rotational constants (GHZ):           0.5186714           0.3566044           0.2700799
 Standard basis: 6-31G(d) (6D, 7F)
 There are   274 symmetry adapted cartesian basis functions of A   symmetry.
 There are   274 symmetry adapted basis functions of A   symmetry.
   274 basis functions,   512 primitive gaussians,   274 cartesian basis functions
    69 alpha electrons       69 beta electrons
       nuclear repulsion energy      1553.1289704907 Hartrees.
 NAtoms=   20 NActive=   20 NUniq=   20 SFac= 1.00D+00 NAtFMM=   60 NAOKFM=F Big=F
 Integral buffers will be    131072 words long.
 Raffenetti 1 integral format.
 Two-electron integral symmetry is turned on.
 One-electron integrals computed using PRISM.
 NBasis=   274 RedAO= T EigKep=  1.69D-03  NBF=   274
 NBsUse=   274 1.00D-06 EigRej= -1.00D+00 NBFU=   274
 ExpMin= 1.61D-01 ExpMax= 5.48D+03 ExpMxC= 8.25D+02 IAcc=3 IRadAn=         5 AccDes= 0.00D+00
 Harris functional with IExCor=  205 and IRadAn=       5 diagonalized for initial guess.
 HarFok:  IExCor=  205 AccDes= 0.00D+00 IRadAn=         5 IDoV= 1 UseB2=F ITyADJ=14
 ICtDFT=  3500011 ScaDFX=  1.000000  1.000000  1.000000  1.000000
 FoFCou: FMM=F IPFlag=           0 FMFlag=      100000 FMFlg1=           0
         NFxFlg=           0 DoJE=T BraDBF=F KetDBF=T FulRan=T
         wScrn=  0.000000 ICntrl=       500 IOpCl=  0 I1Cent=   200000004 NGrid=           0
         NMat0=    1 NMatS0=      1 NMatT0=    0 NMatD0=    1 NMtDS0=    0 NMtDT0=    0
 Petite list used in FoFCou.
 Requested convergence on RMS density matrix=1.00D-08 within 128 cycles.
 Requested convergence on MAX density matrix=1.00D-06.
 Requested convergence on             energy=1.00D-06.
 No special actions if energy rises.
 Integral accuracy reduced to 1.0D-05 until final iterations.
 Initial convergence to 1.0D-05 achieved.  Increase integral accuracy.
 SCF Done:  E(RHF) =  -1192.23295850     A.U. after   17 cycles
            NFock= 17  Conv=0.57D-08     -V/T= 2.0046

 **********************************************************************

            Population analysis using the SCF Density.

 **********************************************************************

 Orbital symmetries:
       Occupied  (A) (A) (A) (A) (A) (A) (A) (A) (A) (A) (A) (A)
                 (A) (A) (A) (A) (A) (A) (A) (A) (A) (A) (A) (A)
                 (A) (A) (A) (A) (A) (A) (A) (A) (A) (A) (A) (A)
                 (A) (A) (A) (A) (A) (A) (A) (A) (A) (A) (A) (A)
                 (A) (A) (A) (A) (A) (A) (A) (A) (A) (A) (A) (A)
                 (A) (A) (A) (A) (A) (A) (A) (A) (A)
       Virtual   (A) (A) (A) (A) (A) (A) (A) (A) (A) (A) (A) (A)
                 (A) (A) (A) (A) (A) (A) (A) (A) (A) (A) (A) (A)
                 (A) (A) (A) (A) (A) (A) (A) (A) (A) (A) (A) (A)
                 (A) (A) (A) (A) (A) (A) (A) (A) (A) (A) (A) (A)
                 (A) (A) (A) (A) (A) (A) (A) (A) (A) (A) (A) (A)
                 (A) (A) (A) (A) (A) (A) (A) (A) (A) (A) (A) (A)
                 (A) (A) (A) (A) (A) (A) (A) (A) (A) (A) (A) (A)
                 (A) (A) (A) (A) (A) (A) (A) (A) (A) (A) (A) (A)
                 (A) (A) (A) (A) (A) (A) (A) (A) (A) (A) (A) (A)
                 (A) (A) (A) (A) (A) (A) (A) (A) (A) (A) (A) (A)
                 (A) (A) (A) (A) (A) (A) (A) (A) (A) (A) (A) (A)
                 (A) (A) (A) (A) (A) (A) (A) (A) (A) (A) (A) (A)
                 (A) (A) (A) (A) (A) (A) (A) (A) (A) (A) (A) (A)
                 (A) (A) (A) (A) (A) (A) (A) (A) (A) (A) (A) (A)
                 (A) (A) (A) (A) (A) (A) (A) (A) (A) (A) (A) (A)
                 (A) (A) (A) (A) (A) (A) (A) (A) (A) (A) (A) (A)
                 (A) (A) (A) (A) (A) (A) (A) (A) (A) (A) (A) (A)
                 (A)
 The electronic state is 1-A.
 Alpha  occ. eigenvalues --  -20.76414 -20.75856 -20.75404 -20.72706 -20.70207
 Alpha  occ. eigenvalues --  -20.69954 -20.69172 -20.68996 -20.68831 -20.68740
 Alpha  occ. eigenvalues --  -20.68007 -20.67835 -16.00053 -15.98941 -15.98732
 Alpha  occ. eigenvalues --  -15.97333 -11.56128 -11.38960  -1.72544  -1.71170
 Alpha  occ. eigenvalues --   -1.70346  -1.68931  -1.55230  -1.49649  -1.48857
 Alpha  occ. eigenvalues --   -1.48220  -1.47983  -1.47832  -1.47448  -1.46863
 Alpha  occ. eigenvalues --   -1.15041  -1.05782  -1.02136  -0.98673  -0.94381
 Alpha  occ. eigenvalues --   -0.89849  -0.87494  -0.85359  -0.84787  -0.84559
 Alpha  occ. eigenvalues --   -0.84048  -0.82458  -0.82187  -0.80935  -0.80842
 Alpha  occ. eigenvalues --   -0.80217  -0.79467  -0.76825  -0.74519  -0.74098
 Alpha  occ. eigenvalues --   -0.69997  -0.67318  -0.65744  -0.63269  -0.62339
 Alpha  occ. eigenvalues --   -0.61131  -0.60080  -0.57561  -0.57247  -0.57072
 Alpha  occ. eigenvalues --   -0.56398  -0.56143  -0.55533  -0.55139  -0.54257
 Alpha  occ. eigenvalues --   -0.52888  -0.51986  -0.51558  -0.50921
 Alpha virt. eigenvalues --    0.02986   0.03818   0.04661   0.05553   0.12357
 Alpha virt. eigenvalues --    0.16558   0.19589   0.23478   0.25157   0.25527
 Alpha virt. eigenvalues --    0.27104   0.28974   0.32570   0.35035   0.38440
 Alpha virt. eigenvalues --    0.41859   0.42592   0.43511   0.43864   0.52854
 Alpha virt. eigenvalues --    0.54432   0.55408   0.57843   0.65521   0.66777
 Alpha virt. eigenvalues --    0.69158   0.69378   0.71702   0.73122   0.76204
 Alpha virt. eigenvalues --    0.78605   0.79155   0.80030   0.80550   0.81774
 Alpha virt. eigenvalues --    0.83222   0.84067   0.87169   0.87451   0.88968
 Alpha virt. eigenvalues --    0.90530   0.92002   0.97274   0.98579   0.99917
 Alpha virt. eigenvalues --    1.00232   1.01333   1.02843   1.03290   1.03663
 Alpha virt. eigenvalues --    1.04375   1.05234   1.06220   1.07697   1.09461
 Alpha virt. eigenvalues --    1.09831   1.10855   1.12479   1.13201   1.15117
 Alpha virt. eigenvalues --    1.15492   1.16407   1.17215   1.18436   1.20074
 Alpha virt. eigenvalues --    1.20575   1.21062   1.21849   1.22415   1.22987
 Alpha virt. eigenvalues --    1.24225   1.25129   1.26456   1.27158   1.30260
 Alpha virt. eigenvalues --    1.32236   1.33993   1.35549   1.37703   1.40207
 Alpha virt. eigenvalues --    1.41623   1.43879   1.48630   1.50007   1.50162
 Alpha virt. eigenvalues --    1.52469   1.54480   1.56517   1.58243   1.60652
 Alpha virt. eigenvalues --    1.61347   1.62185   1.62803   1.64890   1.65589
 Alpha virt. eigenvalues --    1.67331   1.71164   1.71518   1.74551   1.75016
 Alpha virt. eigenvalues --    1.78827   1.80276   1.83712   1.86178   1.89728
 Alpha virt. eigenvalues --    1.91878   1.93959   1.94933   1.96960   1.97913
 Alpha virt. eigenvalues --    1.99695   2.00624   2.00861   2.01813   2.02635
 Alpha virt. eigenvalues --    2.02719   2.03287   2.03636   2.04149   2.04778
 Alpha virt. eigenvalues --    2.05950   2.06485   2.08536   2.11194   2.13395
 Alpha virt. eigenvalues --    2.14658   2.16174   2.16879   2.20479   2.22069
 Alpha virt. eigenvalues --    2.23218   2.24577   2.26036   2.26528   2.29313
 Alpha virt. eigenvalues --    2.30827   2.32179   2.32855   2.33642   2.35410
 Alpha virt. eigenvalues --    2.36030   2.37733   2.39361   2.40324   2.45619
 Alpha virt. eigenvalues --    2.47193   2.48352   2.48884   2.51106   2.54004
 Alpha virt. eigenvalues --    2.55756   2.59673   2.64093   2.71919   2.75670
 Alpha virt. eigenvalues --    2.77552   2.80375   2.82028   2.87343   2.94493
 Alpha virt. eigenvalues --    2.96920   2.97868   2.98895   2.99382   3.00090
 Alpha virt. eigenvalues --    3.01768   3.02209   3.08410   3.09185   3.11780
 Alpha virt. eigenvalues --    3.13197   3.13584   3.14882   3.15657   3.15925
 Alpha virt. eigenvalues --    3.16531   3.17752   3.17867   3.20169   3.29982
 Alpha virt. eigenvalues --    3.30658   3.33470   3.36415   3.38001   3.39207
 Alpha virt. eigenvalues --    3.46481   3.47256   3.93781   3.96207   4.01750
 Alpha virt. eigenvalues --    4.06574   4.14915   4.16428   4.17022   4.18033
 Alpha virt. eigenvalues --    4.18612   4.22003   4.27227   4.30913   4.41881
 Alpha virt. eigenvalues --    4.55829   4.59717   4.76852   4.88178   5.11146
          Condensed to atoms (all electrons):
               1          2          3          4          5          6
     1  O    8.275189   0.310261  -0.077362  -0.089697   0.007024  -0.019940
     2  N    0.310261   5.250280   0.376369   0.172566  -0.015514   0.002548
     3  O   -0.077362   0.376369   8.147162  -0.081993   0.002668  -0.000031
     4  O   -0.089697   0.172566  -0.081993   8.460423   0.158947  -0.030066
     5  C    0.007024  -0.015514   0.002668   0.158947   4.294236   0.141758
     6  O   -0.019940   0.002548  -0.000031  -0.030066   0.141758   8.455545
     7  N    0.002175  -0.000455  -0.000065   0.000751  -0.023455   0.168370
     8  O   -0.000210   0.001249  -0.000017  -0.009105   0.013595  -0.088612
     9  O   -0.000039  -0.000080   0.000000  -0.000023   0.002570  -0.079861
    10  C   -0.007461  -0.002578  -0.000226  -0.040249   0.371134  -0.045796
    11  O    0.000072  -0.000019   0.000000   0.000713  -0.028708   0.003742
    12  N    0.000002  -0.000002   0.000000  -0.000007   0.002373  -0.000072
    13  O    0.000000   0.000000   0.000000   0.000000  -0.000051   0.000000
    14  O    0.000000   0.000000   0.000000   0.000001   0.000694  -0.000001
    15  O   -0.000089   0.000531  -0.000027  -0.022452   0.155465  -0.027230
    16  N    0.000005  -0.000002   0.000000   0.000518  -0.016278   0.002943
    17  O    0.000000   0.000000   0.000000  -0.000025   0.002464  -0.000021
    18  O   -0.000002   0.000006   0.000000  -0.000094   0.009887  -0.026326
    19  H    0.000351   0.000173  -0.000015   0.000331  -0.031802   0.002131
    20  H    0.004269  -0.001376  -0.000056   0.000347  -0.027613  -0.000603
               7          8          9         10         11         12
     1  O    0.002175  -0.000210  -0.000039  -0.007461   0.000072   0.000002
     2  N   -0.000455   0.001249  -0.000080  -0.002578  -0.000019  -0.000002
     3  O   -0.000065  -0.000017   0.000000  -0.000226   0.000000   0.000000
     4  O    0.000751  -0.009105  -0.000023  -0.040249   0.000713  -0.000007
     5  C   -0.023455   0.013595   0.002570   0.371134  -0.028708   0.002373
     6  O    0.168370  -0.088612  -0.079861  -0.045796   0.003742  -0.000072
     7  N    5.251165   0.313357   0.376340   0.001601  -0.000017   0.000000
     8  O    0.313357   8.262493  -0.075825   0.000057   0.000000   0.000000
     9  O    0.376340  -0.075825   8.150648  -0.000103   0.000001   0.000000
    10  C    0.001601   0.000057  -0.000103   4.920548   0.129656  -0.036297
    11  O   -0.000017   0.000000   0.000001   0.129656   8.420106   0.203021
    12  N    0.000000   0.000000   0.000000  -0.036297   0.203021   5.228611
    13  O    0.000000   0.000000   0.000000   0.003225  -0.084011   0.379134
    14  O    0.000000   0.000000   0.000000   0.000578  -0.088495   0.318065
    15  O    0.000488  -0.008053  -0.000017  -0.058950   0.003397  -0.000089
    16  N   -0.000566   0.001586  -0.000067  -0.002446   0.000717  -0.000023
    17  O   -0.000045  -0.000007   0.000000  -0.000061  -0.000182  -0.000001
    18  O    0.003037  -0.000473  -0.000058  -0.000447  -0.005402   0.000120
    19  H   -0.000013   0.000008   0.000001   0.388757  -0.029946  -0.003241
    20  H   -0.000138   0.000006   0.000001   0.382790  -0.027804  -0.003314
              13         14         15         16         17         18
     1  O    0.000000   0.000000  -0.000089   0.000005   0.000000  -0.000002
     2  N    0.000000   0.000000   0.000531  -0.000002   0.000000   0.000006
     3  O    0.000000   0.000000  -0.000027   0.000000   0.000000   0.000000
     4  O    0.000000   0.000001  -0.022452   0.000518  -0.000025  -0.000094
     5  C   -0.000051   0.000694   0.155465  -0.016278   0.002464   0.009887
     6  O    0.000000  -0.000001  -0.027230   0.002943  -0.000021  -0.026326
     7  N    0.000000   0.000000   0.000488  -0.000566  -0.000045   0.003037
     8  O    0.000000   0.000000  -0.008053   0.001586  -0.000007  -0.000473
     9  O    0.000000   0.000000  -0.000017  -0.000067   0.000000  -0.000058
    10  C    0.003225   0.000578  -0.058950  -0.002446  -0.000061  -0.000447
    11  O   -0.084011  -0.088495   0.003397   0.000717  -0.000182  -0.005402
    12  N    0.379134   0.318065  -0.000089  -0.000023  -0.000001   0.000120
    13  O    8.157704  -0.074308   0.000000  -0.000003   0.000000  -0.000010
    14  O   -0.074308   8.267988  -0.000002   0.000000   0.000000  -0.000002
    15  O    0.000000  -0.000002   8.483169   0.168482  -0.083311  -0.090230
    16  N   -0.000003   0.000000   0.168482   5.234735   0.373964   0.321851
    17  O    0.000000   0.000000  -0.083311   0.373964   8.164305  -0.077838
    18  O   -0.000010  -0.000002  -0.090230   0.321851  -0.077838   8.254217
    19  H   -0.000010   0.002524  -0.001985  -0.000002   0.000014   0.000024
    20  H    0.000003   0.002966   0.002562   0.000018   0.000000  -0.000012
              19         20
     1  O    0.000351   0.004269
     2  N    0.000173  -0.001376
     3  O   -0.000015  -0.000056
     4  O    0.000331   0.000347
     5  C   -0.031802  -0.027613
     6  O    0.002131  -0.000603
     7  N   -0.000013  -0.000138
     8  O    0.000008   0.000006
     9  O    0.000001   0.000001
    10  C    0.388757   0.382790
    11  O   -0.029946  -0.027804
    12  N   -0.003241  -0.003314
    13  O   -0.000010   0.000003
    14  O    0.002524   0.002966
    15  O   -0.001985   0.002562
    16  N   -0.000002   0.000018
    17  O    0.000014   0.000000
    18  O    0.000024  -0.000012
    19  H    0.444933  -0.025401
    20  H   -0.025401   0.431657
 Mulliken charges:
               1
     1  O   -0.404549
     2  N    0.906044
     3  O   -0.366408
     4  O   -0.520888
     5  C    0.980605
     6  O   -0.458475
     7  N    0.907468
     8  O   -0.410049
     9  O   -0.373488
    10  C   -0.003733
    11  O   -0.496841
    12  N    0.911720
    13  O   -0.381673
    14  O   -0.430008
    15  O   -0.521659
    16  N    0.914569
    17  O   -0.379255
    18  O   -0.388248
    19  H    0.253170
    20  H    0.261698
 Sum of Mulliken charges =   0.00000
 Mulliken charges with hydrogens summed into heavy atoms:
               1
     1  O   -0.404549
     2  N    0.906044
     3  O   -0.366408
     4  O   -0.520888
     5  C    0.980605
     6  O   -0.458475
     7  N    0.907468
     8  O   -0.410049
     9  O   -0.373488
    10  C    0.511135
    11  O   -0.496841
    12  N    0.911720
    13  O   -0.381673
    14  O   -0.430008
    15  O   -0.521659
    16  N    0.914569
    17  O   -0.379255
    18  O   -0.388248
 Electronic spatial extent (au):  <R**2>=           4066.1368
 Charge=              0.0000 electrons
 Dipole moment (field-independent basis, Debye):
    X=              0.2583    Y=             -1.8461    Z=             -1.2785  Tot=              2.2604
 Quadrupole moment (field-independent basis, Debye-Ang):
   XX=           -115.2636   YY=           -108.2411   ZZ=           -105.5203
   XY=              1.7141   XZ=              2.8412   YZ=              0.3710
 Traceless Quadrupole moment (field-independent basis, Debye-Ang):
   XX=             -5.5886   YY=              1.4339   ZZ=              4.1547
   XY=              1.7141   XZ=              2.8412   YZ=              0.3710
 Octapole moment (field-independent basis, Debye-Ang**2):
  XXX=             32.7241  YYY=              4.7525  ZZZ=              1.3295  XYY=              1.5044
  XXY=             10.7462  XXZ=             -9.0750  XZZ=            -11.2422  YZZ=             -8.6567
  YYZ=              6.8912  XYZ=             -4.6716
 Hexadecapole moment (field-independent basis, Debye-Ang**3):
 XXXX=          -2746.4522 YYYY=          -1654.4731 ZZZZ=           -633.0413 XXXY=            -58.1791
 XXXZ=             54.0801 YYYX=             32.6722 YYYZ=             15.8673 ZZZX=            -16.6931
 ZZZY=              1.4525 XXYY=           -764.8269 XXZZ=           -543.5207 YYZZ=           -390.0563
 XXYZ=            -24.0236 YYXZ=             -9.1119 ZZXY=             10.4151
 N-N= 1.553128970491D+03 E-N=-5.912155355980D+03  KE= 1.186783060754D+03
 Calling FoFJK, ICntrl=      2127 FMM=F ISym2X=0 I1Cent= 0 IOpClX= 0 NMat=1 NMatS=1 NMatT=0.
 ***** Axes restored to original set *****
 -------------------------------------------------------------------
 Center     Atomic                   Forces (Hartrees/Bohr)
 Number     Number              X              Y              Z
 -------------------------------------------------------------------
      1        8          -0.002750079    0.005882082    0.086806637
      2        7           0.014098727   -0.042377485    0.004179008
      3        8          -0.017599651    0.066414462   -0.080213510
      4        8          -0.004422990   -0.003415714   -0.029840189
      5        6           0.028767790    0.014005016   -0.020891825
      6        8          -0.021340480    0.001127064    0.054632882
      7        7          -0.045613032   -0.016200667   -0.009024426
      8        8           0.017566699   -0.011248597   -0.085941630
      9        8           0.058503592    0.035088959    0.080850179
     10        6           0.013252703   -0.017894049   -0.003560963
     11        8           0.039209015    0.006663516   -0.009537268
     12        7           0.013767302    0.016822290   -0.013201539
     13        8          -0.000923708   -0.074772545    0.071599176
     14        8          -0.061874408    0.046519871   -0.039343622
     15        8          -0.014725491   -0.010357489   -0.025377320
     16        7          -0.016484156    0.042161404   -0.018091805
     17        8           0.012427158   -0.088000504   -0.052336875
     18        8           0.011153940    0.024147741    0.089716475
     19        1          -0.013963608   -0.004150657   -0.008030727
     20        1          -0.009049323    0.009585301    0.007607340
 -------------------------------------------------------------------
 Cartesian Forces:  Max     0.089716475 RMS     0.039229671

 GradGradGradGradGradGradGradGradGradGradGradGradGradGradGradGradGradGrad
 Berny optimization.
 FormGI is forming the generalized inverse of G from B-inverse, IUseBI=4.
 Internal  Forces:  Max     0.105765138 RMS     0.034101000
 Search for a local minimum.
 Step number   1 out of a maximum of   90
 All quantities printed in internal units (Hartrees-Bohrs-Radians)
 Mixed Optimization -- RFO/linear search
 Second derivative matrix not updated -- first step.
 ITU=  0
     Eigenvalues ---    0.00230   0.01004   0.01052   0.01076   0.01230
     Eigenvalues ---    0.01241   0.01256   0.01285   0.01339   0.02917
     Eigenvalues ---    0.02952   0.02958   0.02960   0.04838   0.05793
     Eigenvalues ---    0.06991   0.07953   0.10106   0.11543   0.13905
     Eigenvalues ---    0.18504   0.19334   0.22087   0.24998   0.24998
     Eigenvalues ---    0.24999   0.25000   0.25000   0.25000   0.25000
     Eigenvalues ---    0.25000   0.25000   0.25000   0.25000   0.25000
     Eigenvalues ---    0.25865   0.33813   0.34316   0.37985   0.38457
     Eigenvalues ---    0.40885   0.41473   0.42983   0.44821   0.44957
     Eigenvalues ---    0.45142   0.90689   0.91343   0.92295   0.92407
     Eigenvalues ---    0.92462   0.92675   0.92677   0.92757
 RFO step:  Lambda=-1.16289369D-01 EMin= 2.30000000D-03
 Linear search not attempted -- first point.
 Maximum step size (   0.300) exceeded in Quadratic search.
    -- Step size scaled by   0.737
 Iteration  1 RMS(Cart)=  0.13600369 RMS(Int)=  0.00588771
 Iteration  2 RMS(Cart)=  0.00884625 RMS(Int)=  0.00027160
 Iteration  3 RMS(Cart)=  0.00003079 RMS(Int)=  0.00027131
 Iteration  4 RMS(Cart)=  0.00000000 RMS(Int)=  0.00027131
 Variable       Old X    -DE/DX   Delta X   Delta X   Delta X     New X
                                 (Linear)    (Quad)   (Total)
    R1        2.31893  -0.08646   0.00000  -0.06134  -0.06134   2.25758
    R2        2.31688  -0.10557   0.00000  -0.07457  -0.07457   2.24230
    R3        2.65325  -0.03235   0.00000  -0.04215  -0.04215   2.61110
    R4        2.74386  -0.03287   0.00000  -0.04886  -0.04886   2.69500
    R5        2.70368  -0.03905   0.00000  -0.05483  -0.05483   2.64884
    R6        2.97059  -0.02306   0.00000  -0.04535  -0.04535   2.92524
    R7        2.73706  -0.02736   0.00000  -0.04029  -0.04029   2.69677
    R8        2.65485  -0.03390   0.00000  -0.04428  -0.04428   2.61056
    R9        2.32320  -0.08828   0.00000  -0.06322  -0.06322   2.25999
   R10        2.31724  -0.10577   0.00000  -0.07477  -0.07477   2.24247
   R11        2.69600  -0.01022   0.00000  -0.01419  -0.01419   2.68181
   R12        2.07647  -0.01522   0.00000  -0.02471  -0.02471   2.05176
   R13        2.06801  -0.01455   0.00000  -0.02335  -0.02335   2.04465
   R14        2.67690  -0.05379   0.00000  -0.07263  -0.07263   2.60427
   R15        2.31843  -0.10352   0.00000  -0.07337  -0.07337   2.24506
   R16        2.32617  -0.08673   0.00000  -0.06250  -0.06250   2.26367
   R17        2.65112  -0.02956   0.00000  -0.03840  -0.03840   2.61272
   R18        2.31819  -0.10307   0.00000  -0.07302  -0.07302   2.24517
   R19        2.31723  -0.09302   0.00000  -0.06576  -0.06576   2.25147
    A1        2.27002  -0.00565   0.00000  -0.01135  -0.01135   2.25867
    A2        2.04772   0.01783   0.00000   0.03592   0.03591   2.08363
    A3        1.96533  -0.01218   0.00000  -0.02450  -0.02450   1.94083
    A4        2.03022   0.03431   0.00000   0.06907   0.06907   2.09929
    A5        2.01075   0.00479   0.00000   0.00627   0.00568   2.01643
    A6        1.84502   0.00687   0.00000   0.01884   0.01951   1.86453
    A7        1.79973  -0.02206   0.00000  -0.06966  -0.06999   1.72973
    A8        1.89440  -0.00657   0.00000  -0.00194  -0.00233   1.89207
    A9        2.05236   0.00015   0.00000   0.00000  -0.00103   2.05133
   A10        1.84445   0.01901   0.00000   0.05222   0.05234   1.89679
   A11        1.98822   0.03229   0.00000   0.06501   0.06501   2.05323
   A12        2.03772   0.00960   0.00000   0.01933   0.01933   2.05705
   A13        1.97278  -0.00714   0.00000  -0.01437  -0.01437   1.95840
   A14        2.27263  -0.00244   0.00000  -0.00491  -0.00491   2.26772
   A15        1.95532  -0.01640   0.00000  -0.03726  -0.03736   1.91796
   A16        1.88501  -0.00273   0.00000  -0.01346  -0.01349   1.87152
   A17        1.92850   0.00107   0.00000   0.00009   0.00026   1.92876
   A18        1.91134   0.00778   0.00000   0.01745   0.01688   1.92822
   A19        1.88453   0.00894   0.00000   0.02423   0.02407   1.90860
   A20        1.89852   0.00182   0.00000   0.01033   0.01010   1.90862
   A21        1.96625   0.00149   0.00000   0.00299   0.00299   1.96924
   A22        1.96967  -0.00099   0.00000  -0.00198  -0.00198   1.96769
   A23        2.03757   0.00537   0.00000   0.01082   0.01081   2.04838
   A24        2.27583  -0.00436   0.00000  -0.00876  -0.00876   2.26707
   A25        2.04566   0.04038   0.00000   0.08129   0.08129   2.12695
   A26        1.96074  -0.01330   0.00000  -0.02679  -0.02680   1.93394
   A27        2.05390   0.01789   0.00000   0.03600   0.03598   2.08988
   A28        2.26853  -0.00459   0.00000  -0.00925  -0.00927   2.25927
    D1        3.12403   0.00107   0.00000   0.00520   0.00516   3.12919
    D2       -0.05492   0.00149   0.00000   0.00854   0.00850  -0.04642
    D3        3.07154   0.00220   0.00000   0.01259   0.01264   3.08418
    D4        0.82408   0.00616   0.00000   0.03145   0.03118   0.85526
    D5       -1.26745   0.00671   0.00000   0.01690   0.01661  -1.25084
    D6        3.08329  -0.00802   0.00000  -0.02005  -0.01949   3.06380
    D7        1.05129  -0.00979   0.00000  -0.03107  -0.03127   1.02001
    D8        3.11542  -0.00270   0.00000  -0.00448  -0.00431   3.11111
    D9       -1.07694   0.01729   0.00000   0.06293   0.06296  -1.01398
   D10       -3.06232   0.00825   0.00000   0.02972   0.02947  -3.03285
   D11       -0.95591   0.00598   0.00000   0.01945   0.01947  -0.93644
   D12        1.11874   0.00716   0.00000   0.02388   0.02370   1.14244
   D13        1.05448   0.00214   0.00000   0.01208   0.01213   1.06661
   D14       -3.12230  -0.00012   0.00000   0.00182   0.00213  -3.12016
   D15       -1.04765   0.00106   0.00000   0.00625   0.00636  -1.04129
   D16       -1.16176  -0.00607   0.00000  -0.01970  -0.01983  -1.18159
   D17        0.94465  -0.00834   0.00000  -0.02997  -0.02983   0.91482
   D18        3.01930  -0.00716   0.00000  -0.02553  -0.02560   2.99370
   D19       -2.92519   0.00845   0.00000   0.03535   0.03418  -2.89101
   D20       -0.69175  -0.00371   0.00000  -0.01516  -0.01483  -0.70658
   D21        1.42513   0.00272   0.00000   0.02316   0.02400   1.44913
   D22        0.03134   0.00099   0.00000   0.00537   0.00536   0.03671
   D23       -3.10009   0.00009   0.00000   0.00082   0.00082  -3.09927
   D24       -3.12935  -0.00108   0.00000  -0.00546  -0.00546  -3.13481
   D25        3.12201  -0.00196   0.00000  -0.00764  -0.00763   3.11439
   D26        1.03094   0.00675   0.00000   0.02141   0.02180   1.05274
   D27       -1.03368  -0.00495   0.00000  -0.01471  -0.01512  -1.04880
   D28        3.13205  -0.00036   0.00000  -0.00186  -0.00189   3.13017
   D29       -0.02389   0.00056   0.00000   0.00300   0.00303  -0.02087
   D30        3.12476   0.00119   0.00000   0.00592   0.00590   3.13066
   D31       -2.97292   0.00214   0.00000   0.01289   0.01280  -2.96012
   D32        0.17301   0.00396   0.00000   0.02198   0.02207   0.19509
   D33       -3.13658   0.00204   0.00000   0.01037   0.01029  -3.12629
         Item               Value     Threshold  Converged?
 Maximum Force            0.105765     0.000450     NO 
 RMS     Force            0.034101     0.000300     NO 
 Maximum Displacement     0.424088     0.001800     NO 
 RMS     Displacement     0.135264     0.001200     NO 
 Predicted change in Energy=-6.018765D-02
 GradGradGradGradGradGradGradGradGradGradGradGradGradGradGradGradGradGrad

                          Input orientation:                          
 ---------------------------------------------------------------------
 Center     Atomic      Atomic             Coordinates (Angstroms)
 Number     Number       Type             X           Y           Z
 ---------------------------------------------------------------------
      1          8           0        0.260098   -2.805339    0.099454
      2          7           0        0.125320   -2.440952    1.229178
      3          8           0        0.226688   -3.058707    2.237179
      4          8           0       -0.180354   -1.117529    1.482760
      5          6           0       -0.277669   -0.183553    0.409410
      6          8           0       -1.069118   -0.588774   -0.674190
      7          7           0       -2.391838   -0.897195   -0.421810
      8          8           0       -2.793200   -0.763764    0.696832
      9          8           0       -2.958676   -1.271449   -1.394845
     10          6           0        1.162372    0.062862   -0.102223
     11          8           0        1.158298    1.092872   -1.078470
     12          7           0        2.418978    1.386010   -1.551722
     13          8           0        2.412363    2.239805   -2.377809
     14          8           0        3.338027    0.775970   -1.084694
     15          8           0       -0.703635    0.962584    1.145248
     16          7           0       -1.223525    2.080223    0.519024
     17          8           0       -1.326583    2.983155    1.284308
     18          8           0       -1.510619    2.030542   -0.636229
     19          1           0        1.762662    0.353804    0.754427
     20          1           0        1.570411   -0.840566   -0.535828
 ---------------------------------------------------------------------
                    Distance matrix (angstroms):
                    1          2          3          4          5
     1  O    0.000000
     2  N    1.194662   0.000000
     3  O    2.152946   1.186576   0.000000
     4  O    2.226260   1.381734   2.122028   0.000000
     5  C    2.694258   2.435214   3.444071   1.426135   0.000000
     6  O    2.697870   2.912054   4.031843   2.392053   1.401708
     7  N    3.308398   3.383051   4.312660   2.926875   2.381160
     8  O    3.721225   3.407949   4.093795   2.751327   2.597528
     9  O    3.866038   4.214767   5.150964   4.002921   3.409788
    10  C    3.013528   3.019468   4.011546   2.389227   1.547969
    11  O    4.170171   4.345135   5.394167   3.638374   2.430031
    12  N    4.995454   5.257367   6.238383   4.715116   3.685305
    13  O    6.018518   6.336435   7.358636   5.735666   4.569193
    14  O    4.868432   5.101379   5.951472   4.749332   4.028187
    15  O    4.027370   3.504036   4.269496   2.171314   1.427072
    16  N    5.123075   4.771240   5.609258   3.498945   2.455879
    17  O    6.117851   5.615337   6.310683   4.262492   3.448726
    18  O    5.202155   5.113736   6.097144   4.021202   2.741486
    19  H    3.559056   3.273673   4.025295   2.543737   2.137929
    20  H    2.445576   2.786534   3.796750   2.686370   2.177279
                    6          7          8          9         10
     6  O    0.000000
     7  N    1.381452   0.000000
     8  O    2.209703   1.195933   0.000000
     9  O    2.134436   1.186663   2.158759   0.000000
    10  C    2.394018   3.695437   4.119266   4.520431   0.000000
    11  O    2.820063   4.122504   4.713082   4.758107   1.419153
    12  N    4.103248   5.443682   6.069953   6.000488   2.330413
    13  O    4.798321   6.061934   6.750758   6.491778   3.388193
    14  O    4.631842   6.005851   6.567843   6.628468   2.491434
    15  O    2.418810   2.960486   2.747296   4.065487   2.418195
    16  N    2.927652   3.333938   3.253269   4.231708   3.185624
    17  O    4.081750   4.370666   4.066386   5.286137   4.079888
    18  O    2.656535   3.064990   3.351150   3.684496   3.361816
    19  H    3.308833   4.495376   4.691285   5.436161   1.085746
    20  H    2.655119   3.964294   4.535026   4.629924   1.081985
                   11         12         13         14         15
    11  O    0.000000
    12  N    1.378118   0.000000
    13  O    2.139256   1.188036   0.000000
    14  O    2.202654   1.197880   2.161438   0.000000
    15  O    2.903221   4.147728   4.873671   4.619794   0.000000
    16  N    3.033139   4.247086   4.651535   5.008067   1.382592
    17  O    3.915422   4.962174   5.286151   5.678241   2.118988
    18  O    2.863202   4.085986   4.297288   5.028364   2.228322
    19  H    2.066637   2.610464   3.713491   2.458122   2.570209
    20  H    2.049995   2.590318   3.686524   2.457419   3.353901
                   16         17         18         19         20
    16  N    0.000000
    17  O    1.188094   0.000000
    18  O    1.191428   2.151698   0.000000
    19  H    3.457347   4.091173   3.931888   0.000000
    20  H    4.177296   5.130918   4.212611   1.768683   0.000000
 Stoichiometry    C2H2N4O12
 Framework group  C1[X(C2H2N4O12)]
 Deg. of freedom    54
 Full point group                 C1      NOp   1
 Largest Abelian subgroup         C1      NOp   1
 Largest concise Abelian subgroup C1      NOp   1
                         Standard orientation:                         
 ---------------------------------------------------------------------
 Center     Atomic      Atomic             Coordinates (Angstroms)
 Number     Number       Type             X           Y           Z
 ---------------------------------------------------------------------
      1          8           0        1.655157   -2.244988    0.660004
      2          7           0        1.928779   -1.945070   -0.463561
      3          8           0        2.660570   -2.480104   -1.229187
      4          8           0        1.337532   -0.832836   -1.031497
      5          6           0        0.367152   -0.083393   -0.303103
      6          8           0        0.730783    0.266026    1.004744
      7          7           0        1.878883    1.015871    1.172095
      8          8           0        2.472959    1.354847    0.191062
      9          8           0        2.120331    1.217138    2.316369
     10          6           0       -0.913425   -0.950716   -0.239218
     11          8           0       -1.970531   -0.208396    0.348558
     12          7           0       -3.152946   -0.914091    0.404232
     13          8           0       -4.033557   -0.295704    0.907770
     14          8           0       -3.155516   -2.021109   -0.053394
     15          8           0        0.155026    0.976891   -1.234412
     16          7           0       -0.497230    2.142476   -0.877293
     17          8           0       -0.742315    2.799726   -1.836211
     18          8           0       -0.720829    2.366522    0.271318
     19          1           0       -1.165022   -1.228302   -1.258281
     20          1           0       -0.736635   -1.845450    0.342922
 ---------------------------------------------------------------------
 Rotational constants (GHZ):           0.5129034           0.3597135           0.2773832
 Standard basis: 6-31G(d) (6D, 7F)
 There are   274 symmetry adapted cartesian basis functions of A   symmetry.
 There are   274 symmetry adapted basis functions of A   symmetry.
   274 basis functions,   512 primitive gaussians,   274 cartesian basis functions
    69 alpha electrons       69 beta electrons
       nuclear repulsion energy      1566.9756188559 Hartrees.
 NAtoms=   20 NActive=   20 NUniq=   20 SFac= 1.00D+00 NAtFMM=   60 NAOKFM=F Big=F
 Integral buffers will be    131072 words long.
 Raffenetti 1 integral format.
 Two-electron integral symmetry is turned on.
 One-electron integrals computed using PRISM.
 NBasis=   274 RedAO= T EigKep=  1.47D-03  NBF=   274
 NBsUse=   274 1.00D-06 EigRej= -1.00D+00 NBFU=   274
 Initial guess from the checkpoint file:  "C:\g16w\Scratch\Gau-7980.chk"
 B after Tr=     0.000000    0.000000    0.000000
         Rot=    0.999898   -0.006132    0.012080   -0.004420 Ang=  -1.63 deg.
 ExpMin= 1.61D-01 ExpMax= 5.48D+03 ExpMxC= 8.25D+02 IAcc=3 IRadAn=         5 AccDes= 0.00D+00
 Harris functional with IExCor=  205 and IRadAn=       5 diagonalized for initial guess.
 HarFok:  IExCor=  205 AccDes= 0.00D+00 IRadAn=         5 IDoV= 1 UseB2=F ITyADJ=14
 ICtDFT=  3500011 ScaDFX=  1.000000  1.000000  1.000000  1.000000
 FoFCou: FMM=F IPFlag=           0 FMFlag=      100000 FMFlg1=           0
         NFxFlg=           0 DoJE=T BraDBF=F KetDBF=T FulRan=T
         wScrn=  0.000000 ICntrl=       500 IOpCl=  0 I1Cent=   200000004 NGrid=           0
         NMat0=    1 NMatS0=      1 NMatT0=    0 NMatD0=    1 NMtDS0=    0 NMtDT0=    0
 Petite list used in FoFCou.
 Requested convergence on RMS density matrix=1.00D-08 within 128 cycles.
 Requested convergence on MAX density matrix=1.00D-06.
 Requested convergence on             energy=1.00D-06.
 No special actions if energy rises.
 Integral accuracy reduced to 1.0D-05 until final iterations.
 Initial convergence to 1.0D-05 achieved.  Increase integral accuracy.
 SCF Done:  E(RHF) =  -1192.29240286     A.U. after   15 cycles
            NFock= 15  Conv=0.98D-08     -V/T= 2.0033
 Calling FoFJK, ICntrl=      2127 FMM=F ISym2X=0 I1Cent= 0 IOpClX= 0 NMat=1 NMatS=1 NMatT=0.
 ***** Axes restored to original set *****
 -------------------------------------------------------------------
 Center     Atomic                   Forces (Hartrees/Bohr)
 Number     Number              X              Y              Z
 -------------------------------------------------------------------
      1        8          -0.004949995    0.014063647    0.027973198
      2        7           0.006558452   -0.019002481    0.012636969
      3        8          -0.004996026    0.021736119   -0.034189136
      4        8          -0.005294136   -0.000334453   -0.015860524
      5        6           0.014794156    0.009474719   -0.009178816
      6        8          -0.003866402    0.003579381    0.028371646
      7        7          -0.024399761   -0.008037324   -0.008345299
      8        8           0.013382578   -0.002951024   -0.032568863
      9        8           0.022226315    0.013956271    0.033590651
     10        6           0.002008116   -0.008662339   -0.001930753
     11        8           0.020189922    0.000125775   -0.001035866
     12        7          -0.002569101    0.011085269   -0.007361091
     13        8           0.001977570   -0.028291160    0.026321628
     14        8          -0.023346388    0.015622158   -0.013045295
     15        8          -0.005848268   -0.010948290   -0.014603565
     16        7          -0.007554863    0.023021811    0.000518377
     17        8           0.004310101   -0.030944527   -0.024344775
     18        8           0.008249800   -0.005046348    0.033576919
     19        1          -0.005974298   -0.000842886   -0.003070702
     20        1          -0.004897772    0.002395681    0.002545297
 -------------------------------------------------------------------
 Cartesian Forces:  Max     0.034189136 RMS     0.016069383

 GradGradGradGradGradGradGradGradGradGradGradGradGradGradGradGradGradGrad
 Berny optimization.
 Using GEDIIS/GDIIS optimizer.
 FormGI is forming the generalized inverse of G from B-inverse, IUseBI=4.
 Internal  Forces:  Max     0.042562041 RMS     0.013716182
 Search for a local minimum.
 Step number   2 out of a maximum of   90
 All quantities printed in internal units (Hartrees-Bohrs-Radians)
 Mixed Optimization -- RFO/linear search
 Update second derivatives using D2CorX and points    1    2
 DE= -5.94D-02 DEPred=-6.02D-02 R= 9.88D-01
 TightC=F SS=  1.41D+00  RLast= 3.23D-01 DXNew= 5.0454D-01 9.6882D-01
 Trust test= 9.88D-01 RLast= 3.23D-01 DXMaxT set to 5.05D-01
 ITU=  1  0
 Use linear search instead of GDIIS.
     Eigenvalues ---    0.00230   0.01005   0.01051   0.01076   0.01230
     Eigenvalues ---    0.01242   0.01257   0.01286   0.01339   0.02904
     Eigenvalues ---    0.02928   0.02932   0.02959   0.05090   0.05915
     Eigenvalues ---    0.06582   0.08094   0.10564   0.11219   0.13738
     Eigenvalues ---    0.18334   0.19619   0.21804   0.24327   0.24999
     Eigenvalues ---    0.24999   0.24999   0.25000   0.25000   0.25000
     Eigenvalues ---    0.25000   0.25000   0.25000   0.25000   0.25682
     Eigenvalues ---    0.29526   0.33911   0.34482   0.37350   0.38217
     Eigenvalues ---    0.40639   0.41487   0.43167   0.44621   0.45067
     Eigenvalues ---    0.45146   0.85823   0.90872   0.91608   0.92342
     Eigenvalues ---    0.92448   0.92565   0.92732   0.92806
 RFO step:  Lambda=-1.63288765D-02 EMin= 2.29991632D-03
 Quartic linear search produced a step of  0.50453.
 Iteration  1 RMS(Cart)=  0.14599360 RMS(Int)=  0.00553851
 Iteration  2 RMS(Cart)=  0.00848258 RMS(Int)=  0.00049846
 Iteration  3 RMS(Cart)=  0.00002169 RMS(Int)=  0.00049830
 Iteration  4 RMS(Cart)=  0.00000000 RMS(Int)=  0.00049830
 Variable       Old X    -DE/DX   Delta X   Delta X   Delta X     New X
                                 (Linear)    (Quad)   (Total)
    R1        2.25758  -0.03130  -0.03095  -0.01406  -0.04502   2.21257
    R2        2.24230  -0.04079  -0.03762  -0.02119  -0.05882   2.18349
    R3        2.61110  -0.01802  -0.02127  -0.02832  -0.04959   2.56151
    R4        2.69500  -0.01848  -0.02465  -0.03353  -0.05818   2.63683
    R5        2.64884  -0.02231  -0.02766  -0.03885  -0.06652   2.58233
    R6        2.92524  -0.01390  -0.02288  -0.03645  -0.05933   2.86591
    R7        2.69677  -0.02146  -0.02033  -0.05039  -0.07071   2.62606
    R8        2.61056  -0.01273  -0.02234  -0.00989  -0.03224   2.57833
    R9        2.25999  -0.03528  -0.03189  -0.01983  -0.05173   2.20826
   R10        2.24247  -0.04256  -0.03772  -0.02395  -0.06167   2.18079
   R11        2.68181  -0.00440  -0.00716  -0.00506  -0.01222   2.66959
   R12        2.05176  -0.00595  -0.01246  -0.00595  -0.01842   2.03334
   R13        2.04465  -0.00487  -0.01178  -0.00223  -0.01401   2.03064
   R14        2.60427  -0.02427  -0.03665  -0.02967  -0.06631   2.53795
   R15        2.24506  -0.03865  -0.03702  -0.01869  -0.05571   2.18935
   R16        2.26367  -0.03095  -0.03154  -0.01356  -0.04510   2.21857
   R17        2.61272  -0.01678  -0.01937  -0.02681  -0.04619   2.56653
   R18        2.24517  -0.03957  -0.03684  -0.02034  -0.05718   2.18799
   R19        2.25147  -0.03433  -0.03318  -0.01613  -0.04931   2.20216
    A1        2.25867   0.00448  -0.00573   0.03536   0.02953   2.28819
    A2        2.08363  -0.00678   0.01812  -0.06979  -0.05177   2.03186
    A3        1.94083   0.00231  -0.01236   0.03468   0.02222   1.96305
    A4        2.09929  -0.00087   0.03485  -0.06577  -0.03092   2.06837
    A5        2.01643   0.00072   0.00287  -0.00822  -0.00578   2.01065
    A6        1.86453   0.00673   0.00984   0.04696   0.05681   1.92134
    A7        1.72973  -0.00843  -0.03531   0.01208  -0.02558   1.70415
    A8        1.89207  -0.00513  -0.00118  -0.03007  -0.03092   1.86114
    A9        2.05133  -0.00209  -0.00052  -0.03439  -0.03526   2.01607
   A10        1.89679   0.00981   0.02641   0.02644   0.05251   1.94930
   A11        2.05323   0.01407   0.03280   0.02198   0.05478   2.10801
   A12        2.05705  -0.00100   0.00975  -0.02266  -0.01291   2.04414
   A13        1.95840  -0.00213  -0.00725   0.00066  -0.00660   1.95181
   A14        2.26772   0.00313  -0.00248   0.02199   0.01951   2.28723
   A15        1.91796  -0.01257  -0.01885  -0.05012  -0.06939   1.84857
   A16        1.87152   0.00039  -0.00681   0.00700   0.00006   1.87158
   A17        1.92876   0.00021   0.00013  -0.00798  -0.00751   1.92125
   A18        1.92822   0.00420   0.00852   0.00665   0.01389   1.94211
   A19        1.90860   0.00658   0.01214   0.02514   0.03632   1.94492
   A20        1.90862   0.00111   0.00509   0.01904   0.02356   1.93218
   A21        1.96924   0.00963   0.00151   0.05161   0.05312   2.02237
   A22        1.96769   0.00217  -0.00100   0.01403   0.01300   1.98069
   A23        2.04838  -0.00023   0.00546  -0.01079  -0.00537   2.04301
   A24        2.26707  -0.00193  -0.00442  -0.00314  -0.00759   2.25948
   A25        2.12695  -0.00349   0.04102  -0.09128  -0.05026   2.07669
   A26        1.93394   0.00214  -0.01352   0.03566   0.02211   1.95605
   A27        2.08988  -0.00801   0.01815  -0.07687  -0.05873   2.03115
   A28        2.25927   0.00586  -0.00467   0.04113   0.03642   2.29569
    D1        3.12919   0.00114   0.00260   0.02370   0.02666  -3.12733
    D2       -0.04642   0.00039   0.00429  -0.00743  -0.00271  -0.04913
    D3        3.08418   0.00148   0.00637   0.01434   0.02028   3.10446
    D4        0.85526   0.00267   0.01573  -0.01607  -0.00046   0.85479
    D5       -1.25084   0.00382   0.00838  -0.00694   0.00086  -1.24998
    D6        3.06380  -0.00554  -0.00983  -0.05460  -0.06373   3.00008
    D7        1.02001  -0.00484  -0.01578   0.00492  -0.01095   1.00906
    D8        3.11111   0.00050  -0.00217   0.03773   0.03530  -3.13677
    D9       -1.01398   0.00786   0.03177   0.02232   0.05443  -0.95955
   D10       -3.03285   0.00254   0.01487   0.00561   0.01963  -3.01322
   D11       -0.93644   0.00069   0.00982  -0.01067  -0.00136  -0.93779
   D12        1.14244   0.00238   0.01196   0.01203   0.02288   1.16532
   D13        1.06661   0.00060   0.00612   0.00466   0.01084   1.07745
   D14       -3.12016  -0.00125   0.00108  -0.01162  -0.01015  -3.13031
   D15       -1.04129   0.00043   0.00321   0.01107   0.01409  -1.02720
   D16       -1.18159  -0.00002  -0.01001   0.05081   0.04151  -1.14008
   D17        0.91482  -0.00187  -0.01505   0.03453   0.02053   0.93535
   D18        2.99370  -0.00018  -0.01292   0.05723   0.04476   3.03846
   D19       -2.89101   0.00721   0.01724   0.11629   0.13217  -2.75884
   D20       -0.70658   0.00061  -0.00748   0.09563   0.08904  -0.61754
   D21        1.44913   0.00043   0.01211   0.05152   0.06410   1.51323
   D22        0.03671   0.00034   0.00271  -0.00619  -0.00349   0.03322
   D23       -3.09927  -0.00005   0.00041  -0.00531  -0.00488  -3.10415
   D24       -3.13481  -0.00044  -0.00275   0.00118  -0.00158  -3.13639
   D25        3.11439  -0.00038  -0.00385   0.00489   0.00143   3.11582
   D26        1.05274   0.00433   0.01100   0.02315   0.03487   1.08760
   D27       -1.04880  -0.00388  -0.00763  -0.02065  -0.02938  -1.07817
   D28        3.13017  -0.00019  -0.00095   0.00201   0.00103   3.13120
   D29       -0.02087   0.00053   0.00153   0.01177   0.01333  -0.00754
   D30        3.13066   0.00086   0.00298   0.01127   0.01423  -3.13830
   D31       -2.96012   0.00181   0.00646   0.03996   0.04659  -2.91353
   D32        0.19509   0.00270   0.01114   0.04499   0.05595   0.25104
   D33       -3.12629   0.00115   0.00519   0.00685   0.01219  -3.11409
         Item               Value     Threshold  Converged?
 Maximum Force            0.042562     0.000450     NO 
 RMS     Force            0.013716     0.000300     NO 
 Maximum Displacement     0.584095     0.001800     NO 
 RMS     Displacement     0.146719     0.001200     NO 
 Predicted change in Energy=-1.842099D-02
 GradGradGradGradGradGradGradGradGradGradGradGradGradGradGradGradGradGrad

                          Input orientation:                          
 ---------------------------------------------------------------------
 Center     Atomic      Atomic             Coordinates (Angstroms)
 Number     Number       Type             X           Y           Z
 ---------------------------------------------------------------------
      1          8           0        0.166843   -2.686214    0.128270
      2          7           0        0.043629   -2.400959    1.257127
      3          8           0        0.064992   -3.051588    2.211744
      4          8           0       -0.178708   -1.091432    1.527443
      5          6           0       -0.184469   -0.184205    0.467299
      6          8           0       -0.954010   -0.544682   -0.602844
      7          7           0       -2.287852   -0.789468   -0.452804
      8          8           0       -2.739388   -0.643685    0.615088
      9          8           0       -2.777790   -1.119380   -1.444215
     10          6           0        1.224686    0.012192   -0.057771
     11          8           0        1.144408    1.062303   -0.999315
     12          7           0        2.303400    1.425270   -1.572648
     13          8           0        2.188332    2.281233   -2.344880
     14          8           0        3.269053    0.848136   -1.236881
     15          8           0       -0.627621    0.925738    1.176366
     16          7           0       -1.215133    1.946876    0.500585
     17          8           0       -1.317309    2.898251    1.152525
     18          8           0       -1.544327    1.721452   -0.594319
     19          1           0        1.841906    0.285470    0.780163
     20          1           0        1.579358   -0.895306   -0.510931
 ---------------------------------------------------------------------
                    Distance matrix (angstroms):
                    1          2          3          4          5
     1  O    0.000000
     2  N    1.170841   0.000000
     3  O    2.117719   1.155451   0.000000
     4  O    2.149516   1.355495   2.090423   0.000000
     5  C    2.549198   2.364288   3.365591   1.395349   0.000000
     6  O    2.525272   2.810790   3.904465   2.331984   1.366508
     7  N    3.156076   3.310071   4.213416   2.908788   2.374269
     8  O    3.585400   3.353418   4.026394   2.754986   2.600111
     9  O    3.687620   4.110973   5.018054   3.948006   3.354661
    10  C    2.904314   2.991179   3.985265   2.387552   1.516572
    11  O    4.034658   4.277549   5.329178   3.574034   2.338943
    12  N    4.935819   5.268228   6.274899   4.701619   3.597401
    13  O    5.905795   6.284674   7.328736   5.654435   4.429099
    14  O    4.896834   5.213450   6.112845   4.826021   3.987076
    15  O    3.843940   3.394703   4.167833   2.096128   1.389652
    16  N    4.849124   4.589173   5.436122   3.370450   2.367463
    17  O    5.868394   5.472177   6.199458   4.165879   3.354757
    18  O    4.783070   4.789961   5.765917   3.778770   2.570559
    19  H    3.472997   3.267750   4.042623   2.556788   2.103491
    20  H    2.368782   2.784149   3.788907   2.698932   2.138618
                    6          7          8          9         10
     6  O    0.000000
     7  N    1.364393   0.000000
     8  O    2.163502   1.168560   0.000000
     9  O    2.089104   1.154026   2.113880   0.000000
    10  C    2.313856   3.624450   4.073917   4.384347   0.000000
    11  O    2.672629   3.938037   4.538785   4.510134   1.412686
    12  N    3.928352   5.219072   5.873371   5.684209   2.335651
    13  O    4.571082   5.748511   6.449728   6.085863   3.362741
    14  O    4.491793   5.846001   6.461942   6.362266   2.503705
    15  O    2.331148   2.890068   2.690294   3.958936   2.405973
    16  N    2.737445   3.089864   3.007902   3.952982   3.163461
    17  O    3.881635   4.137428   3.854408   5.001742   4.031860
    18  O    2.341775   2.622513   2.912853   3.211554   3.298013
    19  H    3.227848   4.441914   4.677481   5.316300   1.075999
    20  H    2.559168   3.869095   4.470213   4.461611   1.074569
                   11         12         13         14         15
    11  O    0.000000
    12  N    1.343026   0.000000
    13  O    2.094305   1.158557   0.000000
    14  O    2.148586   1.174014   2.109356   0.000000
    15  O    2.809329   4.049383   4.708092   4.584087   0.000000
    16  N    2.932508   4.117092   4.448825   4.932945   1.358151
    17  O    3.749823   4.765058   4.990198   5.562998   2.089748
    18  O    2.797820   3.981188   4.160596   4.933984   2.146821
    19  H    2.063132   2.654778   3.724107   2.534129   2.581759
    20  H    2.063961   2.652651   3.718147   2.534100   3.321736
                   16         17         18         19         20
    16  N    0.000000
    17  O    1.157834   0.000000
    18  O    1.165333   2.118457   0.000000
    19  H    3.490548   4.116541   3.926553   0.000000
    20  H    4.112220   5.054587   4.075756   1.769205   0.000000
 Stoichiometry    C2H2N4O12
 Framework group  C1[X(C2H2N4O12)]
 Deg. of freedom    54
 Full point group                 C1      NOp   1
 Largest Abelian subgroup         C1      NOp   1
 Largest concise Abelian subgroup C1      NOp   1
                         Standard orientation:                         
 ---------------------------------------------------------------------
 Center     Atomic      Atomic             Coordinates (Angstroms)
 Number     Number       Type             X           Y           Z
 ---------------------------------------------------------------------
      1          8           0        1.673300   -2.053949    0.715825
      2          7           0        2.019588   -1.836016   -0.381197
      3          8           0        2.834617   -2.331757   -1.033146
      4          8           0        1.386922   -0.823794   -1.023464
      5          6           0        0.346553   -0.165507   -0.366737
      6          8           0        0.625494    0.235505    0.909478
      7          7           0        1.674161    1.069898    1.165707
      8          8           0        2.291766    1.446583    0.247990
      9          8           0        1.792330    1.276324    2.294955
     10          6           0       -0.869544   -1.067712   -0.282334
     11          8           0       -1.911472   -0.266072    0.234815
     12          7           0       -3.105024   -0.868073    0.364226
     13          8           0       -3.925655   -0.177047    0.801606
     14          8           0       -3.175135   -1.991873    0.031860
     15          8           0        0.163863    0.857656   -1.289175
     16          7           0       -0.436954    2.007225   -0.886577
     17          8           0       -0.746720    2.672919   -1.781829
     18          8           0       -0.530541    2.167028    0.263947
     19          1           0       -1.090963   -1.398633   -1.281953
     20          1           0       -0.663642   -1.905460    0.358355
 ---------------------------------------------------------------------
 Rotational constants (GHZ):           0.5552644           0.3770421           0.2949025
 Standard basis: 6-31G(d) (6D, 7F)
 There are   274 symmetry adapted cartesian basis functions of A   symmetry.
 There are   274 symmetry adapted basis functions of A   symmetry.
   274 basis functions,   512 primitive gaussians,   274 cartesian basis functions
    69 alpha electrons       69 beta electrons
       nuclear repulsion energy      1613.6198323943 Hartrees.
 NAtoms=   20 NActive=   20 NUniq=   20 SFac= 1.00D+00 NAtFMM=   60 NAOKFM=F Big=F
 Integral buffers will be    131072 words long.
 Raffenetti 1 integral format.
 Two-electron integral symmetry is turned on.
 One-electron integrals computed using PRISM.
 NBasis=   274 RedAO= T EigKep=  1.24D-03  NBF=   274
 NBsUse=   274 1.00D-06 EigRej= -1.00D+00 NBFU=   274
 Initial guess from the checkpoint file:  "C:\g16w\Scratch\Gau-7980.chk"
 B after Tr=     0.000000    0.000000    0.000000
         Rot=    0.999776    0.011676    0.014675   -0.009811 Ang=   2.43 deg.
 ExpMin= 1.61D-01 ExpMax= 5.48D+03 ExpMxC= 8.25D+02 IAcc=3 IRadAn=         5 AccDes= 0.00D+00
 Harris functional with IExCor=  205 and IRadAn=       5 diagonalized for initial guess.
 HarFok:  IExCor=  205 AccDes= 0.00D+00 IRadAn=         5 IDoV= 1 UseB2=F ITyADJ=14
 ICtDFT=  3500011 ScaDFX=  1.000000  1.000000  1.000000  1.000000
 FoFCou: FMM=F IPFlag=           0 FMFlag=      100000 FMFlg1=           0
         NFxFlg=           0 DoJE=T BraDBF=F KetDBF=T FulRan=T
         wScrn=  0.000000 ICntrl=       500 IOpCl=  0 I1Cent=   200000004 NGrid=           0
         NMat0=    1 NMatS0=      1 NMatT0=    0 NMatD0=    1 NMtDS0=    0 NMtDT0=    0
 Petite list used in FoFCou.
 Requested convergence on RMS density matrix=1.00D-08 within 128 cycles.
 Requested convergence on MAX density matrix=1.00D-06.
 Requested convergence on             energy=1.00D-06.
 No special actions if energy rises.
 Integral accuracy reduced to 1.0D-05 until final iterations.
 Initial convergence to 1.0D-05 achieved.  Increase integral accuracy.
 SCF Done:  E(RHF) =  -1192.29516988     A.U. after   15 cycles
            NFock= 15  Conv=0.82D-08     -V/T= 2.0018
 Calling FoFJK, ICntrl=      2127 FMM=F ISym2X=0 I1Cent= 0 IOpClX= 0 NMat=1 NMatS=1 NMatT=0.
 ***** Axes restored to original set *****
 -------------------------------------------------------------------
 Center     Atomic                   Forces (Hartrees/Bohr)
 Number     Number              X              Y              Z
 -------------------------------------------------------------------
      1        8           0.007179746   -0.018770511   -0.017139511
      2        7          -0.004331146    0.016828544    0.001165730
      3        8           0.001169381   -0.014759469    0.017224288
      4        8           0.001253175   -0.002136330    0.005955600
      5        6          -0.004770979    0.001050315   -0.001672717
      6        8           0.002405995   -0.016517269   -0.005283816
      7        7           0.016925347    0.002941429   -0.000583433
      8        8          -0.011001633    0.000882832    0.019456233
      9        8          -0.011541377   -0.006688506   -0.019744197
     10        6           0.005676253   -0.000343631   -0.000696907
     11        8          -0.003013316    0.000385107    0.002661968
     12        7          -0.010166489   -0.008188541    0.008276057
     13        8          -0.003294555    0.019262506   -0.016480063
     14        8           0.017548618   -0.011328479    0.007217375
     15        8           0.005401996    0.004691373    0.005326901
     16        7           0.005686671   -0.010022054    0.006898803
     17        8          -0.002416739    0.017672211    0.009050341
     18        8          -0.015601461    0.022297718   -0.020452405
     19        1           0.002373728    0.001547152    0.000628978
     20        1           0.000516786    0.001195604   -0.001809225
 -------------------------------------------------------------------
 Cartesian Forces:  Max     0.022297718 RMS     0.010422275

 GradGradGradGradGradGradGradGradGradGradGradGradGradGradGradGradGradGrad
 Berny optimization.
 Using GEDIIS/GDIIS optimizer.
 FormGI is forming the generalized inverse of G from B-inverse, IUseBI=4.
 Internal  Forces:  Max     0.086572703 RMS     0.015701743
 Search for a local minimum.
 Step number   3 out of a maximum of   90
 All quantities printed in internal units (Hartrees-Bohrs-Radians)
 Mixed Optimization -- RFO/linear search
 Update second derivatives using D2CorX and points    2    3
 DE= -2.77D-03 DEPred=-1.84D-02 R= 1.50D-01
 Trust test= 1.50D-01 RLast= 3.71D-01 DXMaxT set to 5.05D-01
 ITU=  0  1  0
 Use linear search instead of GDIIS.
     Eigenvalues ---    0.00230   0.01007   0.01076   0.01113   0.01229
     Eigenvalues ---    0.01240   0.01257   0.01297   0.01339   0.02901
     Eigenvalues ---    0.02976   0.02986   0.02991   0.05561   0.06037
     Eigenvalues ---    0.06642   0.07673   0.10686   0.11331   0.13380
     Eigenvalues ---    0.17889   0.19545   0.21354   0.23299   0.24997
     Eigenvalues ---    0.24999   0.25000   0.25000   0.25000   0.25000
     Eigenvalues ---    0.25000   0.25000   0.25000   0.25332   0.26143
     Eigenvalues ---    0.33854   0.34341   0.35504   0.38126   0.40040
     Eigenvalues ---    0.41444   0.42509   0.43707   0.44853   0.45046
     Eigenvalues ---    0.60715   0.90762   0.91543   0.92034   0.92364
     Eigenvalues ---    0.92557   0.92720   0.92733   1.03057
 RFO step:  Lambda=-1.34270280D-02 EMin= 2.29567208D-03
 Quartic linear search produced a step of -0.43900.
 Iteration  1 RMS(Cart)=  0.13992127 RMS(Int)=  0.00866137
 Iteration  2 RMS(Cart)=  0.01391446 RMS(Int)=  0.00024484
 Iteration  3 RMS(Cart)=  0.00013926 RMS(Int)=  0.00023555
 Iteration  4 RMS(Cart)=  0.00000002 RMS(Int)=  0.00023555
 Variable       Old X    -DE/DX   Delta X   Delta X   Delta X     New X
                                 (Linear)    (Quad)   (Total)
    R1        2.21257   0.02185   0.01976  -0.01083   0.00894   2.22151
    R2        2.18349   0.02256   0.02582  -0.01879   0.00703   2.19051
    R3        2.56151   0.01654   0.02177  -0.01337   0.00840   2.56991
    R4        2.63683   0.01774   0.02554  -0.01485   0.01069   2.64751
    R5        2.58233   0.01174   0.02920  -0.02979  -0.00059   2.58174
[...]
 06,0.09822348,0.80306053,-0.00051175,0.00188201,-0.00024271,0.00148149
 ,-0.00734715,0.00179969,0.00007090,0.00241839,-0.00152697,-0.00185373,
 0.00436851,-0.00483445,-0.00184933,0.00793724,0.02698089,-0.09939633,-
 0.03822097,-0.09109143,-0.27567121,-0.06633213,-0.22547026,0.05684148,
 0.00105461,-0.00815440,0.32223660,-0.00034882,0.00112927,0.00079446,0.
 00131747,-0.00362204,-0.00080100,-0.00014504,0.00078685,-0.00003802,-0
 .00214532,0.00147598,-0.00168845,0.00044517,0.00677072,0.00389891,-0.0
 2795229,0.01725791,-0.01762907,-0.06999121,-0.15440401,-0.12617845,0.0
 0006633,0.03616710,-0.03987270,0.09893799,0.09513233,-0.00108901,0.002
 23537,0.00227265,0.00391015,-0.00701107,-0.00266695,-0.00079851,0.0011
 6141,0.00053452,-0.00344842,0.00230586,-0.00046002,0.00521618,0.003398
 80,0.00838767,-0.05036458,-0.01230926,-0.00139349,-0.25053759,-0.13310
 329,-0.62111405,-0.01088150,-0.03898522,-0.16702483,0.31053837,0.18239
 325,0.78321218,-0.00300967,-0.00003794,0.00394092,0.00398580,-0.011306
 35,-0.00177816,-0.00087529,0.00282312,-0.00043032,0.00719850,0.0055866
 5,-0.00620874,-0.20902239,-0.00322342,0.04453965,-0.03804131,-0.008359
 00,-0.00136740,0.00133258,-0.00121697,-0.00353385,0.00027261,0.0001067
 8,0.00104739,-0.00066863,0.00006615,-0.00006899,0.64655831,0.00212325,
 -0.00244260,-0.00381945,-0.00640431,0.00269832,0.00976241,0.00147301,0
 .00030460,-0.00304982,-0.02095612,-0.00885821,0.02138296,-0.02551351,-
 0.08202160,0.00597929,-0.01411125,0.00061625,0.00094215,-0.00180589,0.
 00157060,-0.00341546,0.00069030,-0.00000975,0.00053058,0.00000461,-0.0
 0044407,0.00043884,-0.02403323,0.63854986,0.00228873,0.00371384,-0.002
 87907,0.00286312,0.00394707,0.00061581,-0.00045126,0.00022450,-0.00113
 970,0.01984535,0.01420741,-0.01842984,0.05150136,-0.00205216,-0.098726
 95,-0.04619251,-0.00738065,0.00598878,0.00767738,-0.00314017,-0.004704
 55,-0.00259967,0.00050100,0.00253753,-0.00638841,-0.00106429,-0.003623
 01,0.04041663,0.09813270,0.70018455,0.00119528,-0.00233029,-0.00050692
 ,-0.00240739,0.00959685,-0.00100019,0.00054278,-0.00286761,0.00160704,
 -0.00897969,-0.00884596,0.00929731,0.00769092,-0.03842387,0.02106214,-
 0.00380699,-0.00162636,0.00052162,0.00571339,0.00207811,0.00090920,-0.
 00147759,-0.00028288,0.00012739,-0.00183721,-0.00077410,-0.00122665,-0
 .11841847,0.02422117,-0.00230090,0.44266956,-0.00304052,-0.00260756,0.
 00432871,0.00271653,0.00225238,-0.00695377,-0.00046494,-0.00156083,0.0
 0309352,-0.00244975,-0.00057636,0.00059528,0.00162693,-0.01651217,0.00
 907942,-0.00277814,0.00008598,0.00013776,0.00403548,0.00079382,0.00052
 029,-0.00112122,0.00005008,0.00015721,-0.00135146,-0.00039624,-0.00087
 241,0.05985117,-0.21267750,0.06461606,-0.01024082,0.44556236,-0.000395
 23,0.00115088,0.00075429,0.00059930,-0.00736691,0.00057757,-0.00024447
 ,0.00194098,-0.00098952,0.00605973,0.00556980,-0.00305322,-0.00341780,
 0.01911009,-0.01463667,0.00239440,-0.00023410,0.00113381,-0.00312068,-
 0.00111857,-0.00183371,0.00069361,0.00025488,0.00069132,0.00143061,0.0
 0052465,0.00147370,-0.02349610,0.07508030,-0.11466145,-0.10308310,-0.2
 1742836,0.24475773,0.00008242,0.00335045,-0.00118557,0.00120876,-0.009
 51396,0.00347248,-0.00029351,0.00321003,-0.00260755,0.00427397,0.00760
 714,-0.00511290,-0.00975012,0.00063420,0.00022737,0.00446591,0.0021831
 5,0.00031786,-0.00791184,-0.00227262,-0.00092042,0.00226481,0.00050208
 ,-0.00059587,0.00235594,0.00090579,0.00137446,0.01173208,-0.04395214,0
 .02374414,-0.21261648,0.00569730,0.03431072,0.87053957,0.00199983,0.00
 070107,-0.00270826,-0.00221600,-0.00212367,0.00516612,0.00054211,0.001
 46831,-0.00250118,0.00051591,0.00100243,-0.00015423,-0.00446041,-0.007
 13340,0.00578966,0.00608091,0.00087984,0.00014209,-0.00706841,-0.00029
 911,-0.00110215,0.00195883,-0.00003800,-0.00049796,0.00241370,0.000397
 15,0.00161657,-0.05139909,-0.01572091,0.02125218,0.03051809,-0.1569140
 2,0.03492933,-0.26734477,1.09511522,-0.00107116,-0.00166641,0.00148497
 ,0.00087272,0.00446563,-0.00334635,-0.00017331,-0.00174055,0.00187155,
 -0.00120355,-0.00243608,0.00107386,0.00627877,0.00322515,-0.00503433,-
 0.00580638,-0.00156344,-0.00025070,0.00693937,0.00128578,0.00190817,-0
 .00174306,-0.00025258,-0.00001118,-0.00242898,-0.00067420,-0.00198067,
 0.02624599,0.01922211,-0.02407600,0.01907801,0.04220071,-0.11399498,0.
 00944294,-0.39040181,0.56978072,0.00003361,-0.00076465,0.00017184,-0.0
 0034051,0.00235489,-0.00069627,0.00008834,-0.00076427,0.00057028,-0.00
 124826,-0.00186587,0.00138033,0.00318186,-0.00144994,0.00029990,-0.001
 06921,-0.00039063,-0.00007193,0.00166234,0.00049575,0.00011780,-0.0004
 6457,-0.00010176,0.00012881,-0.00052451,-0.00021012,-0.00029311,-0.007
 97845,0.00841823,-0.00139718,0.00063160,-0.07503449,0.05313302,-0.1617
 5940,0.05481932,-0.02218484,0.16401596,-0.00091313,-0.00069063,0.00121
 455,0.00090764,0.00254993,-0.00269170,-0.00018651,-0.00111504,0.001425
 63,-0.00212894,-0.00166312,0.00151097,0.00661270,-0.00280193,-0.001014
 30,-0.00378336,-0.00022673,-0.00017793,0.00412651,0.00026376,0.0006845
 3,-0.00110452,0.00004302,0.00020882,-0.00149590,-0.00029844,-0.0010527
 9,-0.00419573,0.00804538,0.00010208,-0.04238521,-0.04531297,0.05601645
 ,0.02946210,-0.59239156,0.27956259,-0.07028637,0.72579130,0.00058299,0
 .00076256,-0.00079020,-0.00047606,-0.00223136,0.00180994,0.00008675,0.
 00089134,-0.00100415,0.00150452,0.00146068,-0.00120104,-0.00499218,0.0
 0213080,0.00076143,0.00280746,0.00036577,0.00022656,-0.00311490,-0.000
 47491,-0.00090686,0.00076817,0.00007169,0.00004630,0.00116335,0.000292
 43,0.00096579,0.00670764,-0.00355894,0.00639215,0.03295985,0.06535368,
 -0.02352517,-0.00656352,0.27262611,-0.28746041,0.00987026,-0.39579714,
 0.28719949,0.00034218,-0.00130410,0.00001805,-0.00101099,0.00369567,-0
 .00053812,0.00021414,-0.00117044,0.00069453,-0.00067086,-0.00301717,0.
 00166286,0.00215297,0.00349353,-0.00146307,-0.00131021,-0.00119394,0.0
 0004202,0.00272158,0.00099979,0.00025958,-0.00074290,-0.00027008,0.000
 19557,-0.00076340,-0.00035173,-0.00043564,-0.00623090,0.01587667,-0.00
 951969,-0.10684244,0.01844978,0.02926207,-0.50742357,0.23065425,-0.031
 52843,0.00399116,0.08748267,-0.04237448,0.61770566,-0.00082401,0.00011
 125,0.00096358,0.00108890,-0.00029814,-0.00175789,-0.00024690,-0.00020
 077,0.00071704,0.00001646,0.00056850,-0.00028617,0.00117316,0.00104241
 ,-0.00148819,-0.00191928,0.00011764,-0.00004653,0.00149535,-0.00029199
 ,0.00018323,-0.00040247,0.00010597,0.00011696,-0.00061879,-0.00002130,
 -0.00042230,-0.00179382,-0.00751710,0.00321519,0.01167185,0.03420938,-
 0.00404154,0.25316035,-0.32519539,0.05263122,0.08743396,-0.09242149,0.
 05818084,-0.34648048,0.38592871,0.00021494,0.00037688,-0.00017534,-0.0
 0018296,-0.00124259,0.00054795,0.00003250,0.00041376,-0.00033665,0.000
 22006,0.00062535,-0.00016136,-0.00132631,-0.00104843,0.00221027,0.0022
 0131,0.00048152,-0.00000070,-0.00187145,-0.00015814,-0.00042131,0.0004
 5806,0.00002803,-0.00001833,0.00072886,0.00017846,0.00058264,0.0017520
 3,-0.00197156,-0.00280949,0.03291303,-0.00591234,0.02717102,-0.0450986
 2,0.05883321,-0.14494203,-0.04245602,0.05842993,0.01966297,0.04932360,
 -0.10950702,0.09903009,0.00003023,0.00181716,0.00028233,0.00112369,-0.
 00648182,0.00032996,-0.00007697,0.00393003,-0.00270124,0.00167195,0.02
 448950,-0.00025272,-0.10462777,0.05013385,0.02076461,0.01856013,-0.017
 01121,-0.00989901,-0.00478702,0.00246493,0.00945643,-0.00257199,-0.007
 39312,-0.00688483,0.00126951,0.00033495,-0.00196590,-0.00845186,0.0428
 4187,0.02143178,-0.00155074,-0.00047019,0.00314342,0.00198385,0.006506
 27,-0.00420639,-0.00018257,-0.00312930,0.00192280,-0.00045945,-0.00255
 443,0.00118558,0.16793686,0.00239149,-0.00471971,-0.00315175,-0.005090
 62,0.01861884,0.00518653,0.00042437,-0.01019820,0.00540910,0.02862944,
 -0.09455018,0.00037491,0.06786056,-0.14228735,-0.06011686,-0.01842236,
 -0.02337080,-0.03162664,0.02098465,-0.00061744,0.00266626,-0.00917501,
 -0.00269421,-0.00029019,-0.00717497,-0.00054842,-0.00467555,0.00355357
 ,-0.02571653,-0.01102133,-0.00011866,0.00476877,0.00007842,0.00061341,
 -0.00675504,0.00370234,-0.00000058,0.00432075,-0.00233011,-0.00119875,
 0.00316788,-0.00135211,-0.15585252,0.53450611,-0.00155242,0.00201479,0
 .00367570,0.00253018,-0.00523417,-0.00767550,-0.00047445,0.00433397,-0
 .00104900,-0.01506248,0.04564066,0.01295342,0.02124146,-0.05086790,-0.
 16013830,-0.00338428,-0.04001584,-0.02761125,0.01217952,0.00142262,-0.
 00662275,-0.00306940,0.00062074,0.00543718,-0.00208276,0.00014495,0.00
 141868,0.00994596,-0.02091723,-0.00737239,0.00017988,-0.00219735,0.000
 20729,-0.00036219,-0.00088661,0.00025034,-0.00002457,0.00002223,0.0001
 0206,0.00047583,0.00063005,-0.00021995,0.04520577,0.02944522,0.3700963
 1,0.00052237,-0.00253579,-0.00205718,0.00005604,0.00726799,0.00241525,
 0.00002214,-0.00360881,0.00142912,0.00159660,-0.01388111,-0.00092015,-
 0.00909743,0.02414479,0.02010424,-0.01026116,-0.00150870,-0.01060186,0
 .01011226,-0.00878264,-0.00125531,-0.00480045,0.00313681,0.00196173,-0
 .00335176,0.00056826,-0.00191774,-0.00215402,0.00124754,0.00217689,-0.
 00207281,0.00215781,-0.00280399,-0.00516166,-0.00405425,0.00505641,0.0
 0056111,0.00207118,-0.00225833,0.00144875,0.00070895,-0.00079352,-0.08
 078224,0.01438319,-0.02826795,0.55830954,-0.00203058,0.00450427,0.0008
 1178,0.00430759,-0.01514244,0.00310013,-0.00053842,0.00658935,-0.00415
 747,-0.00289454,0.01437663,-0.00372335,0.01443497,-0.07892662,-0.00789
 903,0.01006151,0.01281891,0.00812533,-0.02135173,-0.01046702,-0.014642
 99,0.00518129,0.00457152,0.00440840,0.00749533,0.00189216,0.00802893,0
 .00693708,0.01406809,-0.00201384,-0.00522908,-0.00932803,0.00346779,0.
 00433659,0.01610743,-0.00765352,-0.00071729,-0.00869262,0.00376918,-0.
 00101326,-0.00428426,0.00248118,0.00424178,-0.12437473,0.00138374,0.13
 343639,0.95615767,0.00094345,-0.00194076,-0.00297535,-0.00156176,0.007
 06734,0.00545469,0.00031825,-0.00371710,0.00071928,0.00322220,-0.01499
 083,-0.00401150,0.02152797,0.01774574,0.06027151,-0.01291864,0.0021718
 7,-0.01364839,0.00630670,-0.01057650,0.00760964,-0.00287412,0.00253603
 ,-0.00233401,-0.00460429,0.00041124,-0.00604607,-0.00103690,-0.0121862
 2,0.00119855,-0.00070766,-0.00066821,-0.00402021,0.00453269,-0.0013080
 7,0.00144705,-0.00133092,0.00158655,-0.00171496,-0.00352865,0.00228167
 ,-0.00049755,-0.02766269,-0.00546470,-0.18207061,0.36992567,0.32856763
 ,0.95660191,0.00000070,0.00033036,0.00037755,-0.00014645,-0.00101181,-
 0.00057311,0.00002448,0.00043650,-0.00010892,-0.00016576,0.00198051,0.
 00051256,0.00265120,-0.00018105,-0.00455853,0.00166025,-0.00046049,0.0
 0238187,-0.00099273,0.00207016,-0.00138341,0.00054753,-0.00036680,0.00
 028101,0.00068179,-0.00024760,0.00087401,-0.00038185,-0.00103358,-0.00
 036926,0.00015663,0.00109340,0.00106190,0.00089449,-0.00067858,-0.0007
 4384,-0.00006464,0.00035288,0.00029555,-0.00018214,0.00019594,-0.00000
 328,0.02463702,0.02438043,0.00372717,-0.16169790,-0.12018197,-0.081044
 80,0.12666233,0.00102890,-0.00200274,-0.00066302,-0.00217593,0.0083365
 6,-0.00013900,0.00020941,-0.00370786,0.00219941,0.00413042,-0.01235362
 ,0.00054708,-0.00985373,0.01620389,0.01757504,-0.00246656,-0.00471501,
 -0.00186900,0.00640096,0.00533629,0.00150517,-0.00178540,-0.00182260,-
 0.00038899,-0.00169746,-0.00098297,-0.00093629,-0.00271247,-0.00549711
 ,0.00086118,0.00210820,0.00394570,-0.00045253,-0.00164306,-0.00582944,
 0.00229224,0.00041254,0.00329772,-0.00115593,0.00025594,0.00157697,-0.
 00086714,0.02349449,-0.13861914,-0.01895121,-0.11222727,-0.60385781,-0
 .24014452,0.15077270,0.75584541,0.00002839,-0.00006128,0.00054538,-0.0
 0018424,0.00029629,-0.00127756,-0.00000558,-0.00016564,0.00045826,0.00
 034006,0.00003463,0.00102721,-0.00439474,0.00014928,-0.00578606,0.0025
 4182,-0.00069877,0.00308619,-0.00092816,0.00376030,-0.00137413,0.00027
 119,-0.00131428,0.00014450,0.00085341,-0.00034275,0.00131143,-0.000381
 14,0.00051069,-0.00017722,0.00062047,0.00058184,0.00068702,-0.00123785
 ,-0.00034969,-0.00017852,0.00035869,0.00010305,0.00020236,0.00068852,-
 0.00020479,0.00003182,0.00036654,0.02102023,0.03469269,-0.07984095,-0.
 26197261,-0.28223655,0.14457572,0.33369326,0.31512762,-0.00038460,0.00
 105811,0.00093774,0.00055501,-0.00313492,-0.00067619,-0.00006187,0.001
 28304,-0.00049061,-0.00021729,0.00469578,0.00085470,-0.00140933,-0.012
 99109,-0.01214516,0.00577659,0.00662315,0.00390891,-0.00912732,0.00315
 267,0.00149812,0.00314038,-0.00365584,-0.00171049,0.00261496,-0.000323
 21,0.00176475,0.00034892,0.00140541,0.00022090,-0.00310722,-0.00014731
 ,0.00114858,0.00070841,0.00108731,-0.00172099,-0.00004962,-0.00047463,
 0.00068663,-0.00034908,-0.00019116,0.00035705,-0.00856152,0.03013281,-
 0.04538707,-0.29362943,-0.03370316,-0.27063667,0.00555396,-0.05538828,
 -0.06377186,0.29828731,0.00057264,-0.00092550,0.00022283,-0.00113890,0
 .00342642,-0.00145804,0.00007400,-0.00122719,0.00095358,0.00093507,-0.
 00234965,0.00120920,-0.00600552,0.00830026,-0.00119784,0.00263152,-0.0
 1827246,0.00178258,0.00761380,0.00067426,0.00448287,-0.00097800,-0.002
 96853,-0.00106783,-0.00148617,-0.00003534,-0.00170366,-0.00115741,-0.0
 0167594,0.00060516,0.00222363,0.00202788,-0.00094841,-0.00091147,-0.00
 340234,0.00187333,0.00014349,0.00179969,-0.00082528,0.00025907,0.00084
 531,-0.00054708,0.03649492,0.00578179,0.05169344,-0.04276190,-0.173474
 89,-0.07376625,-0.05753478,-0.01606385,-0.09486811,0.06080072,0.197171
 09,-0.00070985,0.00123260,0.00175324,0.00131834,-0.00385047,-0.0020208
 3,-0.00023597,0.00150816,-0.00022527,-0.00064140,0.00607392,0.00190317
 ,-0.00575045,-0.01854502,-0.02358438,0.00640055,-0.00310777,0.00864057
 ,-0.00268505,0.00486193,-0.00625732,0.00112130,-0.00013782,0.00185783,
 0.00248484,-0.00041963,0.00373667,0.00036378,0.00504702,-0.00128731,0.
 00362235,-0.00041036,0.00142910,-0.00250505,-0.00002463,-0.00058302,0.
 00074259,-0.00049356,0.00085056,0.00194234,-0.00101103,0.00016605,-0.0
 5315093,0.05324300,-0.03600046,-0.27173136,-0.06447287,-0.53190695,-0.
 06534274,-0.09241440,-0.06644126,0.38493834,0.11391772,0.64708110,0.00
 000113,0.00012636,0.00010606,-0.00023240,-0.00193423,0.00019795,-0.000
 03936,0.00032084,-0.00029348,0.00306785,0.00199172,-0.00035416,-0.0208
 5112,-0.00478814,-0.02767071,-0.00904780,-0.00126672,0.00196701,0.0031
 7491,-0.00039578,-0.00167507,-0.00076960,0.00012030,0.00101890,-0.0015
 5098,-0.00027546,-0.00067453,-0.19064787,-0.01739986,-0.14748180,0.003
 73510,0.00186782,0.00249346,0.00164945,0.00107416,-0.00005738,-0.00014
 963,-0.00087471,0.00007101,-0.00093413,-0.00114408,0.00198776,0.002463
 89,-0.00070083,0.00098444,-0.00068292,0.00013472,-0.00127088,0.0002108
 0,0.00017162,0.00025702,0.00042753,0.00007389,0.00074222,0.20042105,0.
 00065573,0.00007372,0.00009187,-0.00123475,0.00007977,0.00001435,0.000
 05877,-0.00021955,0.00017612,-0.00069327,-0.00059858,0.00022030,-0.000
 40421,-0.00000714,-0.00504838,-0.00289949,-0.00029969,0.00005726,0.001
 41764,0.00034334,-0.00009163,-0.00054953,-0.00005648,0.00047511,-0.000
 53449,-0.00013667,-0.00029007,-0.02685868,-0.06746209,-0.03445627,0.02
 415241,-0.01021619,0.04008851,0.00654708,0.00261967,-0.00109485,-0.001
 18884,-0.00125438,-0.00014567,-0.00261757,0.00000043,0.00059490,-0.000
 03229,0.00046731,0.00057675,0.00019874,-0.00038283,0.00088709,-0.00007
 765,0.00012021,-0.00012272,-0.00009692,0.00012039,-0.00040177,0.022733
 18,0.07422908,0.00031599,-0.00003694,0.00015588,0.00000521,-0.00045218
 ,0.00073411,-0.00008800,0.00018699,-0.00021491,0.00055698,-0.00004551,
 0.00126368,0.00967447,0.00065859,0.01162510,0.00448701,0.00067486,-0.0
 0057217,-0.00070327,0.00050649,0.00054155,0.00023833,-0.00005405,-0.00
 017536,0.00089082,0.00015059,0.00053943,-0.14861706,-0.02989482,-0.241
 64220,-0.00810741,0.01281931,-0.01733101,-0.00838040,0.00095601,0.0003
 7438,0.00153670,-0.00027535,-0.00000846,0.00288755,-0.00170162,0.00108
 592,-0.00045221,0.00037882,0.00018765,-0.00020783,0.00069185,-0.000273
 33,0.00003293,-0.00021766,-0.00001216,-0.00000592,-0.00016146,0.000206
 97,0.16092426,0.01712662,0.25562433,0.00058061,-0.00096143,-0.00144701
 ,-0.00159117,0.00132983,0.00307120,0.00036786,-0.00014812,-0.00090843,
 0.00034041,-0.00269778,0.00014613,-0.00435772,0.02683357,0.01786131,0.
 00210961,0.00032768,0.00080377,-0.00135691,-0.00025869,0.00056680,0.00
 070385,-0.00009762,-0.00079920,0.00042615,0.00012280,0.00002425,-0.085
 54809,0.05690782,0.04453439,0.00078177,-0.00039740,0.00083056,0.002756
 93,-0.00094917,-0.00104591,-0.00033460,-0.00005735,0.00035250,-0.00165
 635,-0.00076947,0.00035738,-0.00762498,0.00438040,0.00319738,0.0010629
 7,-0.00290723,0.00240105,-0.00004970,0.00096498,-0.00015731,-0.0005157
 8,0.00015142,-0.00092385,0.00975408,-0.01857585,-0.01498814,0.08415106
 ,-0.00239066,-0.00716336,0.00299912,-0.00097996,0.00081146,0.00106723,
 0.00021915,0.00004867,-0.00059048,0.00123010,-0.00122172,-0.00035250,0
 .00199672,0.00836772,0.00183194,-0.00114225,-0.00023751,0.00003096,0.0
 0093692,0.00048293,0.00038170,-0.00032617,-0.00011015,0.00011683,-0.00
 025288,-0.00011998,-0.00021710,0.05736961,-0.23580968,-0.15024967,0.00
 655452,-0.03759447,-0.00662165,0.00742834,-0.00248823,-0.00297767,-0.0
 0130338,0.00075736,0.00061426,-0.00254985,0.00255602,0.00016319,-0.003
 82485,0.00282027,0.00114113,0.00003882,-0.00215477,0.00150801,0.000161
 44,0.00078940,-0.00004892,-0.00013247,0.00024858,-0.00059502,0.0001652
 3,0.00257968,-0.00131053,-0.06319838,0.26743777,-0.00150978,0.00097458
 ,0.00230992,0.00224593,-0.00177905,-0.00409522,-0.00031395,-0.00006344
 ,0.00145740,-0.00008592,0.00218639,-0.00013508,-0.00203325,-0.00958348
 ,-0.00491893,-0.00154314,0.00045884,0.00007896,0.00054655,0.00031506,0
 .00035571,-0.00024240,0.00001663,0.00013736,-0.00004619,-0.00008036,-0
 .00012627,0.05195867,-0.15821555,-0.19538818,-0.00596547,0.03095900,0.
 01516310,-0.00285270,-0.00137669,0.00366715,0.00014462,0.00063539,-0.0
 0160835,0.00193556,0.00154728,-0.00090603,0.00308669,-0.00147559,-0.00
 026111,-0.00041314,0.00169975,-0.00156714,0.00000762,-0.00047369,0.000
 16898,0.00022924,-0.00019677,0.00068151,0.00872794,-0.01865751,-0.0121
 0941,-0.05387688,0.15310919,0.19709565||-0.00002147,0.00001138,0.00000
 493,0.00003311,-0.00000021,0.00002561,-0.00000845,-0.00000165,-0.00001
 088,-0.00001236,0.00001056,-0.00003102,-0.00001082,-0.00003827,-0.0000
 2226,-0.00003808,0.00001598,0.00003094,0.00003296,-0.00003155,-0.00003
 562,0.00001178,0.00001866,0.00001429,0.00000895,0.00001050,0.00000840,
 0.00000712,-0.00002571,0.00000771,0.00001193,0.00002112,0.00001012,-0.
 00000681,-0.00002639,-0.00007191,0.00000280,-0.00000739,0.00003372,-0.
 00001433,0.00002255,0.00002172,0.00001350,-0.00000288,0.00000430,-0.00
 006025,0.00000683,0.00000633,0.00001089,-0.00000290,-0.00001899,0.0000
 3630,0.00000750,0.00002294,-0.00000606,0.00000288,0.00000524,0.0000092
 9,0.00000899,-0.00000556|||@
 The archive entry for this job was punched.


            ARSENIC

 FOR SMELTER FUMES HAVE I BEEN NAMED,
    I AM AN EVIL POISONOUS SMOKE...
 BUT WHEN FROM POISON I AM FREED,
    THROUGH ART AND SLEIGHT OF HAND,
 THEN CAN I CURE BOTH MAN AND BEAST,
    FROM DIRE DISEASE OFTTIMES DIRECT THEM;
 BUT PREPARE ME CORRECTLY, AND TAKE GREAT CARE
    THAT YOU FAITHFULLY KEEP WATCHFUL GUARD OVER ME;
 FOR ELSE I AM POISON, AND POISON REMAIN,
    THAT PIERCES THE HEART OF MANY A ONE.

 ATTRIBUTED TO THE PROBABLY MYTHICAL 15TH
 CENTURY MONK, BASILIUS VALENTINUS
 Job cpu time:       0 days  0 hours  1 minutes 12.0 seconds.
 Elapsed time:       0 days  0 hours  1 minutes 11.4 seconds.
 File lengths (MBytes):  RWF=    195 Int=      0 D2E=      0 Chk=      7 Scr=      1
 Normal termination of Gaussian 16 at Tue Jun 11 18:49:22 2024.
