 Entering Link 1 = C:\G16W\l1.exe PID=     20660.
  
 Copyright (c) 1988-2019, Gaussian, Inc.  All Rights Reserved.
  
 This is part of the Gaussian(R) 16 program.  It is based on
 the Gaussian(R) 09 system (copyright 2009, Gaussian, Inc.),
 the Gaussian(R) 03 system (copyright 2003, Gaussian, Inc.),
 the Gaussian(R) 98 system (copyright 1998, Gaussian, Inc.),
 the Gaussian(R) 94 system (copyright 1995, Gaussian, Inc.),
 the Gaussian 92(TM) system (copyright 1992, Gaussian, Inc.),
 the Gaussian 90(TM) system (copyright 1990, Gaussian, Inc.),
 the Gaussian 88(TM) system (copyright 1988, Gaussian, Inc.),
 the Gaussian 86(TM) system (copyright 1986, Carnegie Mellon
 University), and the Gaussian 82(TM) system (copyright 1983,
 Carnegie Mellon University). Gaussian is a federally registered
 trademark of Gaussian, Inc.
  
 This software contains proprietary and confidential information,
 including trade secrets, belonging to Gaussian, Inc.
  
 This software is provided under written license and may be
 used, copied, transmitted, or stored only in accord with that
 written license.
  
 The following legend is applicable only to US Government
 contracts under FAR:
  
                    RESTRICTED RIGHTS LEGEND
  
 Use, reproduction and disclosure by the US Government is
 subject to restrictions as set forth in subparagraphs (a)
 and (c) of the Commercial Computer Software - Restricted
 Rights clause in FAR 52.227-19.
  
 Gaussian, Inc.
 340 Quinnipiac St., Bldg. 40, Wallingford CT 06492
  
  
 ---------------------------------------------------------------
 Warning -- This program may not be used in any manner that
 competes with the business of Gaussian, Inc. or will provide
 assistance to any competitor of Gaussian, Inc.  The licensee
 of this program is prohibited from giving any competitor of
 Gaussian, Inc. access to this program.  By using this program,
 the user acknowledges that Gaussian, Inc. is engaged in the
 business of creating and licensing software in the field of
 computational chemistry and represents and warrants to the
 licensee that it is not a competitor of Gaussian, Inc. and that
 it will not use this program in any manner prohibited above.
 ---------------------------------------------------------------
  

 Cite this work as:
 Gaussian 16, Revision C.01,
 M. J. Frisch, G. W. Trucks, H. B. Schlegel, G. E. Scuseria, 
 M. A. Robb, J. R. Cheeseman, G. Scalmani, V. Barone, 
 G. A. Petersson, H. Nakatsuji, X. Li, M. Caricato, A. V. Marenich, 
 J. Bloino, B. G. Janesko, R. Gomperts, B. Mennucci, H. P. Hratchian, 
 J. V. Ortiz, A. F. Izmaylov, J. L. Sonnenberg, D. Williams-Young, 
 F. Ding, F. Lipparini, F. Egidi, J. Goings, B. Peng, A. Petrone, 
 T. Henderson, D. Ranasinghe, V. G. Zakrzewski, J. Gao, N. Rega, 
 G. Zheng, W. Liang, M. Hada, M. Ehara, K. Toyota, R. Fukuda, 
 J. Hasegawa, M. Ishida, T. Nakajima, Y. Honda, O. Kitao, H. Nakai, 
 T. Vreven, K. Throssell, J. A. Montgomery, Jr., J. E. Peralta, 
 F. Ogliaro, M. J. Bearpark, J. J. Heyd, E. N. Brothers, K. N. Kudin, 
 V. N. Staroverov, T. A. Keith, R. Kobayashi, J. Normand, 
 K. Raghavachari, A. P. Rendell, J. C. Burant, S. S. Iyengar, 
 J. Tomasi, M. Cossi, J. M. Millam, M. Klene, C. Adamo, R. Cammi, 
 J. W. Ochterski, R. L. Martin, K. Morokuma, O. Farkas, 
 J. B. Foresman, and D. J. Fox, Gaussian, Inc., Wallingford CT, 2019.
 
 ******************************************
 Gaussian 16:  EM64W-G16RevC.01 30-May-2019
                11-Jun-2024 
 ******************************************
 %nprocshared=24
 Will use up to   24 processors via shared memory.
 %mem=120GB
 ----------------------
 # HF/6-31G(d) Opt Freq
 ----------------------
 1/18=20,19=15,38=1/1,3;
 2/9=110,12=2,17=6,18=5,40=1/2;
 3/5=1,6=6,7=1,11=9,25=1,30=1,71=1/1,2,3;
 4//1;
 5/5=2,38=5/2;
 6/7=2,8=2,9=2,10=2,28=1/1;
 7//1,2,3,16;
 1/18=20,19=15/3(2);
 2/9=110/2;
 99//99;
 2/9=110/2;
 3/5=1,6=6,7=1,11=9,25=1,30=1,71=1/1,2,3;
 4/5=5,16=3,69=1/1;
 5/5=2,38=5/2;
 7//1,2,3,16;
 1/18=20,19=15/3(-5);
 2/9=110/2;
 6/7=2,8=2,9=2,10=2,19=2,28=1/1;
 99/9=1/99;
 ----------------------------------------------------------------------
 O=[N+1]([O-1])OC(O[N+1]([O-1])=O)(CO[N+1]([O-1])=O)O[N+1]([O-1])[O-1] 
 geometry optimization
 ----------------------------------------------------------------------
 Symbolic Z-matrix:
 Charge =  0 Multiplicity = 1
 O                    -2.90246   0.58714   0.28215 
 N                    -2.42434   0.99058  -0.77641 
 O                    -2.93493   1.63597  -1.68478 
 O                    -1.08634   0.65066  -1.03214 
 C                    -0.44575   0.01018   0.08574 
 O                    -0.99145  -1.25238   0.50788 
 N                    -1.21486  -2.19227  -0.51255 
 O                    -0.99403  -1.83253  -1.66428 
 O                    -1.6038   -3.2706   -0.0799 
 C                     1.04425  -0.1964   -0.34612 
 O                     1.64983   1.07647  -0.59794 
 N                     3.01558   0.9661   -0.95582 
 O                     3.53887   2.05545  -1.16956 
 O                     3.48341  -0.17054  -1.01731 
 O                    -0.3641    0.97377   1.16442 
 N                    -0.43816   0.28662   2.43649 
 O                     0.89837  -0.02933   2.79737 
 O                    -0.91871   1.22874   3.37689 
 H                     1.58648  -0.72379   0.44773 
 H                     1.10215  -0.79384  -1.26186 
 

 GradGradGradGradGradGradGradGradGradGradGradGradGradGradGradGradGradGrad
 Berny optimization.
 Initialization pass.
                           ----------------------------
                           !    Initial Parameters    !
                           ! (Angstroms and Degrees)  !
 --------------------------                            --------------------------
 ! Name  Definition              Value          Derivative Info.                !
 --------------------------------------------------------------------------------
 ! R1    R(1,2)                  1.2296         estimate D2E/DX2                !
 ! R2    R(2,3)                  1.2257         estimate D2E/DX2                !
 ! R3    R(2,4)                  1.404          estimate D2E/DX2                !
 ! R4    R(4,5)                  1.4388         estimate D2E/DX2                !
 ! R5    R(5,6)                  1.4388         estimate D2E/DX2                !
 ! R6    R(5,10)                 1.565          estimate D2E/DX2                !
 ! R7    R(5,15)                 1.4487         estimate D2E/DX2                !
 ! R8    R(6,7)                  1.4052         estimate D2E/DX2                !
 ! R9    R(7,8)                  1.2266         estimate D2E/DX2                !
 ! R10   R(7,9)                  1.2253         estimate D2E/DX2                !
 ! R11   R(10,11)                1.4319         estimate D2E/DX2                !
 ! R12   R(10,19)                1.0965         estimate D2E/DX2                !
 ! R13   R(10,20)                1.0949         estimate D2E/DX2                !
 ! R14   R(11,12)                1.4162         estimate D2E/DX2                !
 ! R15   R(12,13)                1.2273         estimate D2E/DX2                !
 ! R16   R(12,14)                1.2307         estimate D2E/DX2                !
 ! R17   R(15,16)                1.4477         estimate D2E/DX2                !
 ! R18   R(16,17)                1.42           estimate D2E/DX2                !
 ! R19   R(16,18)                1.4152         estimate D2E/DX2                !
 ! A1    A(1,2,3)              130.4504         estimate D2E/DX2                !
 ! A2    A(1,2,4)              116.6115         estimate D2E/DX2                !
 ! A3    A(3,2,4)              112.9224         estimate D2E/DX2                !
 ! A4    A(2,4,5)              112.9887         estimate D2E/DX2                !
 ! A5    A(4,5,6)              116.7255         estimate D2E/DX2                !
 ! A6    A(4,5,10)             105.5598         estimate D2E/DX2                !
 ! A7    A(4,5,15)             107.9091         estimate D2E/DX2                !
 ! A8    A(6,5,10)             109.04           estimate D2E/DX2                !
 ! A9    A(6,5,15)             112.7429         estimate D2E/DX2                !
 ! A10   A(10,5,15)            103.8632         estimate D2E/DX2                !
 ! A11   A(5,6,7)              115.7339         estimate D2E/DX2                !
 ! A12   A(6,7,8)              117.1966         estimate D2E/DX2                !
 ! A13   A(6,7,9)              112.502          estimate D2E/DX2                !
 ! A14   A(8,7,9)              130.3            estimate D2E/DX2                !
 ! A15   A(5,10,11)            109.5014         estimate D2E/DX2                !
 ! A16   A(5,10,19)            109.5428         estimate D2E/DX2                !
 ! A17   A(5,10,20)            110.6804         estimate D2E/DX2                !
 ! A18   A(11,10,19)           110.2266         estimate D2E/DX2                !
 ! A19   A(11,10,20)           108.3968         estimate D2E/DX2                !
 ! A20   A(19,10,20)           108.4766         estimate D2E/DX2                !
 ! A21   A(10,11,12)           112.521          estimate D2E/DX2                !
 ! A22   A(11,12,13)           112.7082         estimate D2E/DX2                !
 ! A23   A(11,12,14)           116.8214         estimate D2E/DX2                !
 ! A24   A(13,12,14)           130.4662         estimate D2E/DX2                !
 ! A25   A(5,15,16)            109.6129         estimate D2E/DX2                !
 ! A26   A(15,16,17)           106.3063         estimate D2E/DX2                !
 ! A27   A(15,16,18)           106.5752         estimate D2E/DX2                !
 ! A28   A(17,16,18)           107.388          estimate D2E/DX2                !
 ! D1    D(1,2,3,4)           -178.4862         estimate D2E/DX2                !
 ! D2    D(1,2,4,5)             -7.1046         estimate D2E/DX2                !
 ! D3    D(3,2,4,5)            174.1838         estimate D2E/DX2                !
 ! D4    D(2,4,5,6)             62.6248         estimate D2E/DX2                !
 ! D5    D(2,4,5,10)          -176.0869         estimate D2E/DX2                !
 ! D6    D(2,4,5,15)           -65.5158         estimate D2E/DX2                !
 ! D7    D(4,5,6,7)             48.56           estimate D2E/DX2                !
 ! D8    D(10,5,6,7)           -70.8775         estimate D2E/DX2                !
 ! D9    D(15,5,6,7)           174.3191         estimate D2E/DX2                !
 ! D10   D(4,5,10,11)           61.4788         estimate D2E/DX2                !
 ! D11   D(4,5,10,19)         -177.5303         estimate D2E/DX2                !
 ! D12   D(4,5,10,20)          -57.9633         estimate D2E/DX2                !
 ! D13   D(6,5,10,11)         -172.3686         estimate D2E/DX2                !
 ! D14   D(6,5,10,19)          -51.3776         estimate D2E/DX2                !
 ! D15   D(6,5,10,20)           68.1893         estimate D2E/DX2                !
 ! D16   D(15,5,10,11)         -51.9434         estimate D2E/DX2                !
 ! D17   D(15,5,10,19)          69.0475         estimate D2E/DX2                !
 ! D18   D(15,5,10,20)        -171.3855         estimate D2E/DX2                !
 ! D19   D(4,5,15,16)          148.9579         estimate D2E/DX2                !
 ! D20   D(6,5,15,16)           18.5723         estimate D2E/DX2                !
 ! D21   D(10,5,15,16)         -99.3192         estimate D2E/DX2                !
 ! D22   D(5,6,7,8)             -3.6926         estimate D2E/DX2                !
 ! D23   D(5,6,7,9)            175.9215         estimate D2E/DX2                !
 ! D24   D(6,7,8,9)            179.5325         estimate D2E/DX2                !
 ! D25   D(5,10,11,12)         178.2224         estimate D2E/DX2                !
 ! D26   D(19,10,11,12)         57.6466         estimate D2E/DX2                !
 ! D27   D(20,10,11,12)        -60.9397         estimate D2E/DX2                !
 ! D28   D(10,11,12,13)       -179.8477         estimate D2E/DX2                !
 ! D29   D(10,11,12,14)          0.8204         estimate D2E/DX2                !
 ! D30   D(11,12,13,14)       -179.2163         estimate D2E/DX2                !
 ! D31   D(5,15,16,17)          90.0027         estimate D2E/DX2                !
 ! D32   D(5,15,16,18)        -155.6706         estimate D2E/DX2                !
 ! D33   D(15,16,17,18)        113.7704         estimate D2E/DX2                !
 --------------------------------------------------------------------------------
 Trust Radius=3.00D-01 FncErr=1.00D-07 GrdErr=1.00D-07 EigMax=2.50D+02 EigMin=1.00D-04
 Number of steps in this run=     90 maximum allowed number of steps=    120.
 GradGradGradGradGradGradGradGradGradGradGradGradGradGradGradGradGradGrad

                          Input orientation:                          
 ---------------------------------------------------------------------
 Center     Atomic      Atomic             Coordinates (Angstroms)
 Number     Number       Type             X           Y           Z
 ---------------------------------------------------------------------
      1          8           0       -2.902461    0.587144    0.282155
      2          7           0       -2.424336    0.990581   -0.776413
      3          8           0       -2.934930    1.635967   -1.684784
      4          8           0       -1.086339    0.650664   -1.032140
      5          6           0       -0.445749    0.010183    0.085739
      6          8           0       -0.991450   -1.252381    0.507876
      7          7           0       -1.214862   -2.192269   -0.512545
      8          8           0       -0.994029   -1.832526   -1.664277
      9          8           0       -1.603799   -3.270604   -0.079903
     10          6           0        1.044254   -0.196404   -0.346119
     11          8           0        1.649827    1.076468   -0.597938
     12          7           0        3.015576    0.966097   -0.955823
     13          8           0        3.538867    2.055448   -1.169558
     14          8           0        3.483406   -0.170535   -1.017311
     15          8           0       -0.364097    0.973771    1.164417
     16          7           0       -0.438164    0.286620    2.436486
     17          8           0        0.898365   -0.029333    2.797373
     18          8           0       -0.918715    1.228736    3.376888
     19          1           0        1.586484   -0.723787    0.447734
     20          1           0        1.102151   -0.793839   -1.261857
 ---------------------------------------------------------------------
                    Distance matrix (angstroms):
                    1          2          3          4          5
     1  O    0.000000
     2  N    1.229605   0.000000
     3  O    2.229335   1.225712   0.000000
     4  O    2.242700   1.403986   2.194096   0.000000
     5  C    2.531185   2.370505   3.460339   1.438827   0.000000
     6  O    2.662098   2.955239   4.114296   2.449945   1.438769
     7  N    3.347338   3.415111   4.357542   2.892881   2.408375
     8  O    3.644930   3.286946   3.974665   2.564050   2.599758
     9  O    4.086542   4.395008   5.331228   4.068275   3.483114
    10  C    4.072497   3.691233   4.580776   2.393235   1.565020
    11  O    4.662331   4.078975   4.744921   2.802935   2.448636
    12  N    6.057998   5.442925   6.032298   4.114732   3.738902
    13  O    6.764177   6.070280   6.507800   4.835786   4.651456
    14  O    6.560639   6.025582   6.701045   4.642968   4.085050
    15  O    2.714987   2.830492   3.894308   2.334714   1.448694
    16  N    3.286977   3.842286   5.003943   3.547397   2.366957
    17  O    4.599201   4.985230   6.128386   4.366534   3.026742
    18  O    3.731523   4.424197   5.463652   4.449920   3.541219
    19  H    4.679378   4.530372   5.528043   3.350093   2.190827
    20  H    4.508659   3.981950   4.730840   2.632270   2.204192
                    6          7          8          9         10
     6  O    0.000000
     7  N    1.405191   0.000000
     8  O    2.248294   1.226649   0.000000
     9  O    2.189447   1.225258   2.224889   0.000000
    10  C    2.447138   3.019069   2.927291   4.066173   0.000000
    11  O    3.690895   4.347226   4.072996   5.454491   1.431899
    12  N    4.808359   5.297959   4.940761   6.328941   2.368387
    13  O    5.854852   6.408799   5.992347   7.483394   3.460056
    14  O    4.849837   5.139641   4.819564   6.030656   2.529947
    15  O    2.404240   3.682364   4.034058   4.593464   2.373706
    16  N    2.528673   3.930004   4.649303   4.510517   3.189634
    17  O    3.210770   4.483255   5.170975   5.004536   3.151308
    18  O    3.793740   5.188320   5.898334   5.715138   4.443541
    19  H    2.632256   3.305467   3.514106   4.116137   1.096517
    20  H    2.779457   2.808135   2.373769   3.854030   1.094924
                   11         12         13         14         15
    11  O    0.000000
    12  N    1.416168   0.000000
    13  O    2.203094   1.227275   0.000000
    14  O    2.256745   1.230682   2.231873   0.000000
    15  O    2.678121   3.989694   4.674462   4.568660   0.000000
    16  N    3.767134   4.888534   5.652352   5.245609   1.447696
    17  O    3.649059   4.422662   5.201453   4.610227   2.294902
    18  O    4.734959   5.858328   6.420566   6.375391   2.295133
    19  H    2.082873   2.620684   3.761859   2.459829   2.683301
    20  H    2.058832   2.617676   3.750272   2.473598   3.340828
                   16         17         18         19         20
    16  N    0.000000
    17  O    1.419992   0.000000
    18  O    1.415227   2.284810   0.000000
    19  H    3.012517   2.544912   4.320684   0.000000
    20  H    4.149423   4.135620   5.449098   1.778255   0.000000
 Stoichiometry    C2H2N4O12
 Framework group  C1[X(C2H2N4O12)]
 Deg. of freedom    54
 Full point group                 C1      NOp   1
 Largest Abelian subgroup         C1      NOp   1
 Largest concise Abelian subgroup C1      NOp   1
                         Standard orientation:                         
 ---------------------------------------------------------------------
 Center     Atomic      Atomic             Coordinates (Angstroms)
 Number     Number       Type             X           Y           Z
 ---------------------------------------------------------------------
      1          8           0        2.548169    0.372705    1.152595
      2          7           0        1.859305   -0.449870    1.753234
      3          8           0        2.073750   -1.056337    2.796584
      4          8           0        0.633855   -0.795638    1.161715
      5          6           0        0.318517    0.008644    0.011100
      6          8           0        1.218087   -0.082249   -1.108083
      7          7           0        1.553227   -1.384080   -1.517325
      8          8           0        1.111192   -2.313036   -0.849256
      9          8           0        2.256188   -1.393809   -2.520823
     10          6           0       -1.108105   -0.448093   -0.442143
     11          8           0       -2.047412   -0.194658    0.608479
     12          7           0       -3.370934   -0.548456    0.249802
     13          8           0       -4.179422   -0.329844    1.146885
     14          8           0       -3.533247   -1.025859   -0.872837
     15          8           0        0.120111    1.371359    0.460943
     16          7           0        0.520353    2.290888   -0.583133
     17          8           0       -0.636303    2.525477   -1.372749
     18          8           0        0.849966    3.509461    0.056633
     19          1           0       -1.397017    0.097039   -1.348625
     20          1           0       -1.118595   -1.520286   -0.663840
 ---------------------------------------------------------------------
 Rotational constants (GHZ):           0.4739444           0.3175243           0.2904547
 Standard basis: 6-31G(d) (6D, 7F)
 There are   274 symmetry adapted cartesian basis functions of A   symmetry.
 There are   274 symmetry adapted basis functions of A   symmetry.
   274 basis functions,   512 primitive gaussians,   274 cartesian basis functions
    69 alpha electrons       69 beta electrons
       nuclear repulsion energy      1525.5186441611 Hartrees.
 NAtoms=   20 NActive=   20 NUniq=   20 SFac= 1.00D+00 NAtFMM=   60 NAOKFM=F Big=F
 Integral buffers will be    131072 words long.
 Raffenetti 1 integral format.
 Two-electron integral symmetry is turned on.
 One-electron integrals computed using PRISM.
 NBasis=   274 RedAO= T EigKep=  1.76D-03  NBF=   274
 NBsUse=   274 1.00D-06 EigRej= -1.00D+00 NBFU=   274
 ExpMin= 1.61D-01 ExpMax= 5.48D+03 ExpMxC= 8.25D+02 IAcc=3 IRadAn=         5 AccDes= 0.00D+00
 Harris functional with IExCor=  205 and IRadAn=       5 diagonalized for initial guess.
 HarFok:  IExCor=  205 AccDes= 0.00D+00 IRadAn=         5 IDoV= 1 UseB2=F ITyADJ=14
 ICtDFT=  3500011 ScaDFX=  1.000000  1.000000  1.000000  1.000000
 FoFCou: FMM=F IPFlag=           0 FMFlag=      100000 FMFlg1=           0
         NFxFlg=           0 DoJE=T BraDBF=F KetDBF=T FulRan=T
         wScrn=  0.000000 ICntrl=       500 IOpCl=  0 I1Cent=   200000004 NGrid=           0
         NMat0=    1 NMatS0=      1 NMatT0=    0 NMatD0=    1 NMtDS0=    0 NMtDT0=    0
 Petite list used in FoFCou.
 Requested convergence on RMS density matrix=1.00D-08 within 128 cycles.
 Requested convergence on MAX density matrix=1.00D-06.
 Requested convergence on             energy=1.00D-06.
 No special actions if energy rises.
 Integral accuracy reduced to 1.0D-05 until final iterations.
 Initial convergence to 1.0D-05 achieved.  Increase integral accuracy.
 SCF Done:  E(RHF) =  -1192.04938319     A.U. after   28 cycles
            NFock= 28  Conv=0.93D-08     -V/T= 2.0049

 **********************************************************************

            Population analysis using the SCF Density.

 **********************************************************************

 Orbital symmetries:
       Occupied  (A) (A) (A) (A) (A) (A) (A) (A) (A) (A) (A) (A)
                 (A) (A) (A) (A) (A) (A) (A) (A) (A) (A) (A) (A)
                 (A) (A) (A) (A) (A) (A) (A) (A) (A) (A) (A) (A)
                 (A) (A) (A) (A) (A) (A) (A) (A) (A) (A) (A) (A)
                 (A) (A) (A) (A) (A) (A) (A) (A) (A) (A) (A) (A)
                 (A) (A) (A) (A) (A) (A) (A) (A) (A)
       Virtual   (A) (A) (A) (A) (A) (A) (A) (A) (A) (A) (A) (A)
                 (A) (A) (A) (A) (A) (A) (A) (A) (A) (A) (A) (A)
                 (A) (A) (A) (A) (A) (A) (A) (A) (A) (A) (A) (A)
                 (A) (A) (A) (A) (A) (A) (A) (A) (A) (A) (A) (A)
                 (A) (A) (A) (A) (A) (A) (A) (A) (A) (A) (A) (A)
                 (A) (A) (A) (A) (A) (A) (A) (A) (A) (A) (A) (A)
                 (A) (A) (A) (A) (A) (A) (A) (A) (A) (A) (A) (A)
                 (A) (A) (A) (A) (A) (A) (A) (A) (A) (A) (A) (A)
                 (A) (A) (A) (A) (A) (A) (A) (A) (A) (A) (A) (A)
                 (A) (A) (A) (A) (A) (A) (A) (A) (A) (A) (A) (A)
                 (A) (A) (A) (A) (A) (A) (A) (A) (A) (A) (A) (A)
                 (A) (A) (A) (A) (A) (A) (A) (A) (A) (A) (A) (A)
                 (A) (A) (A) (A) (A) (A) (A) (A) (A) (A) (A) (A)
                 (A) (A) (A) (A) (A) (A) (A) (A) (A) (A) (A) (A)
                 (A) (A) (A) (A) (A) (A) (A) (A) (A) (A) (A) (A)
                 (A) (A) (A) (A) (A) (A) (A) (A) (A) (A) (A) (A)
                 (A) (A) (A) (A) (A) (A) (A) (A) (A) (A) (A) (A)
                 (A)
 The electronic state is 1-A.
 Alpha  occ. eigenvalues --  -20.77486 -20.76586 -20.76228 -20.72124 -20.72009
 Alpha  occ. eigenvalues --  -20.71002 -20.70777 -20.69659 -20.69356 -20.69167
 Alpha  occ. eigenvalues --  -20.67521 -20.67283 -16.00952 -15.98875 -15.96840
 Alpha  occ. eigenvalues --  -15.94757 -11.55768 -11.38126  -1.73175  -1.71148
 Alpha  occ. eigenvalues --   -1.68382  -1.61055  -1.53627  -1.50365  -1.49317
 Alpha  occ. eigenvalues --   -1.48465  -1.46934  -1.46365  -1.43538  -1.35076
 Alpha  occ. eigenvalues --   -1.14572  -1.04813  -1.03624  -1.01062  -0.94008
 Alpha  occ. eigenvalues --   -0.90636  -0.87751  -0.85449  -0.84890  -0.83529
 Alpha  occ. eigenvalues --   -0.82945  -0.82120  -0.81312  -0.80548  -0.79127
 Alpha  occ. eigenvalues --   -0.77665  -0.76661  -0.75973  -0.72631  -0.70069
 Alpha  occ. eigenvalues --   -0.69329  -0.66282  -0.64724  -0.63921  -0.62796
 Alpha  occ. eigenvalues --   -0.60486  -0.59320  -0.58155  -0.57562  -0.56976
 Alpha  occ. eigenvalues --   -0.56523  -0.55898  -0.55299  -0.54658  -0.53939
 Alpha  occ. eigenvalues --   -0.53421  -0.52100  -0.50465  -0.47946
 Alpha virt. eigenvalues --   -0.10997   0.02296   0.03909   0.06066   0.13505
 Alpha virt. eigenvalues --    0.16337   0.19771   0.20882   0.24601   0.25328
 Alpha virt. eigenvalues --    0.25987   0.27870   0.29679   0.29858   0.35014
 Alpha virt. eigenvalues --    0.35275   0.38998   0.41871   0.42152   0.44178
 Alpha virt. eigenvalues --    0.53349   0.55670   0.56010   0.65933   0.68090
 Alpha virt. eigenvalues --    0.69010   0.69671   0.73148   0.73857   0.76723
 Alpha virt. eigenvalues --    0.77894   0.78459   0.79798   0.80413   0.82910
 Alpha virt. eigenvalues --    0.83340   0.83678   0.84628   0.88266   0.89168
 Alpha virt. eigenvalues --    0.90474   0.90838   0.94779   0.98016   0.99590
 Alpha virt. eigenvalues --    1.00408   1.01781   1.02285   1.03651   1.03896
 Alpha virt. eigenvalues --    1.04107   1.05525   1.06484   1.06760   1.08517
 Alpha virt. eigenvalues --    1.10493   1.11886   1.13367   1.13964   1.15162
 Alpha virt. eigenvalues --    1.16246   1.16803   1.17545   1.19110   1.19880
 Alpha virt. eigenvalues --    1.20345   1.20975   1.21246   1.22979   1.23817
 Alpha virt. eigenvalues --    1.24937   1.25912   1.26767   1.27098   1.29269
 Alpha virt. eigenvalues --    1.32208   1.34276   1.36329   1.37732   1.38908
 Alpha virt. eigenvalues --    1.40100   1.40816   1.44090   1.45017   1.48969
 Alpha virt. eigenvalues --    1.51637   1.53363   1.54650   1.56829   1.57764
 Alpha virt. eigenvalues --    1.59832   1.60501   1.61995   1.63001   1.64758
 Alpha virt. eigenvalues --    1.65845   1.68537   1.69712   1.72818   1.74980
 Alpha virt. eigenvalues --    1.78060   1.79162   1.81137   1.85492   1.89060
 Alpha virt. eigenvalues --    1.90013   1.93744   1.95700   1.96270   1.97318
 Alpha virt. eigenvalues --    1.99268   2.00436   2.01609   2.02129   2.03099
 Alpha virt. eigenvalues --    2.03378   2.03744   2.04114   2.04317   2.04653
 Alpha virt. eigenvalues --    2.05579   2.06278   2.06952   2.08202   2.10988
 Alpha virt. eigenvalues --    2.11631   2.14580   2.17692   2.19516   2.22565
 Alpha virt. eigenvalues --    2.22878   2.23902   2.25735   2.26315   2.27816
 Alpha virt. eigenvalues --    2.28557   2.29772   2.31357   2.32036   2.32359
 Alpha virt. eigenvalues --    2.34016   2.34921   2.36582   2.37704   2.37930
 Alpha virt. eigenvalues --    2.40023   2.46088   2.48665   2.50652   2.51658
 Alpha virt. eigenvalues --    2.53317   2.54585   2.58266   2.62526   2.68570
 Alpha virt. eigenvalues --    2.74545   2.76485   2.78776   2.80358   2.81394
 Alpha virt. eigenvalues --    2.87288   2.90778   2.96306   2.98077   2.99249
 Alpha virt. eigenvalues --    2.99481   3.01042   3.01974   3.07780   3.09512
 Alpha virt. eigenvalues --    3.09866   3.12362   3.12898   3.14478   3.15159
 Alpha virt. eigenvalues --    3.15502   3.16068   3.16877   3.18844   3.23833
 Alpha virt. eigenvalues --    3.29772   3.33695   3.34151   3.36638   3.39239
 Alpha virt. eigenvalues --    3.41804   3.45080   3.74140   3.92121   3.95777
 Alpha virt. eigenvalues --    3.98565   4.01699   4.16003   4.16989   4.18375
 Alpha virt. eigenvalues --    4.20982   4.21403   4.25269   4.30951   4.35911
 Alpha virt. eigenvalues --    4.44975   4.60132   4.73719   4.81065   5.07443
          Condensed to atoms (all electrons):
               1          2          3          4          5          6
     1  O    8.266534   0.315577  -0.074949  -0.088811   0.016916  -0.011879
     2  N    0.315577   5.241141   0.375725   0.172593  -0.023810   0.001283
     3  O   -0.074949   0.375725   8.152773  -0.081727   0.002521  -0.000024
     4  O   -0.088811   0.172593  -0.081727   8.455682   0.148487  -0.027887
     5  C    0.016916  -0.023810   0.002521   0.148487   4.340000   0.138269
     6  O   -0.011879   0.001283  -0.000024  -0.027887   0.138269   8.501740
     7  N    0.001460  -0.000381  -0.000047   0.001965  -0.016307   0.171598
     8  O   -0.000244   0.001799  -0.000021  -0.018236   0.007695  -0.089783
     9  O   -0.000022  -0.000043   0.000000  -0.000027   0.002385  -0.083102
    10  C    0.000055   0.002021  -0.000139  -0.056541   0.367123  -0.037656
    11  O    0.000000  -0.000039   0.000002   0.004238  -0.030931   0.000582
    12  N    0.000000   0.000001   0.000000  -0.000074   0.002517  -0.000004
    13  O    0.000000   0.000000   0.000000   0.000001  -0.000070   0.000000
    14  O    0.000000   0.000000   0.000000  -0.000003   0.000723   0.000000
    15  O   -0.007382  -0.002573  -0.000174  -0.032162   0.158022  -0.017056
    16  N    0.000850   0.000156   0.000002   0.000910  -0.022939  -0.010324
    17  O    0.000006   0.000001   0.000000  -0.000033   0.000118  -0.000283
    18  O    0.000024   0.000001   0.000000  -0.000017   0.002141  -0.000108
    19  H    0.000007  -0.000013   0.000001   0.002012  -0.027688   0.000266
    20  H    0.000005  -0.000139   0.000001  -0.000619  -0.030708   0.001015
               7          8          9         10         11         12
     1  O    0.001460  -0.000244  -0.000022   0.000055   0.000000   0.000000
     2  N   -0.000381   0.001799  -0.000043   0.002021  -0.000039   0.000001
     3  O   -0.000047  -0.000021   0.000000  -0.000139   0.000002   0.000000
     4  O    0.001965  -0.018236  -0.000027  -0.056541   0.004238  -0.000074
     5  C   -0.016307   0.007695   0.002385   0.367123  -0.030931   0.002517
     6  O    0.171598  -0.089783  -0.083102  -0.037656   0.000582  -0.000004
     7  N    5.224921   0.318765   0.377777  -0.002523  -0.000008  -0.000001
     8  O    0.318765   8.259974  -0.076484  -0.007046   0.000073   0.000002
     9  O    0.377777  -0.076484   8.141948  -0.000256   0.000000   0.000000
    10  C   -0.002523  -0.007046  -0.000256   4.945387   0.130488  -0.036918
    11  O   -0.000008   0.000073   0.000000   0.130488   8.411256   0.206291
    12  N   -0.000001   0.000002   0.000000  -0.036918   0.206291   5.220605
    13  O    0.000000   0.000000   0.000000   0.003335  -0.084174   0.378803
    14  O    0.000000   0.000000   0.000000   0.000388  -0.088361   0.319847
    15  O    0.000531  -0.000060  -0.000017  -0.062632   0.000679  -0.000140
    16  N    0.000020   0.000000  -0.000024  -0.001309   0.000214  -0.000002
    17  O   -0.000019   0.000000   0.000001  -0.002007  -0.000009   0.000009
    18  O    0.000000   0.000000   0.000000  -0.000122   0.000001   0.000000
    19  H    0.000242   0.000264  -0.000006   0.381250  -0.026375  -0.002675
    20  H   -0.001217   0.003139  -0.000025   0.384326  -0.028828  -0.002794
              13         14         15         16         17         18
     1  O    0.000000   0.000000  -0.007382   0.000850   0.000006   0.000024
     2  N    0.000000   0.000000  -0.002573   0.000156   0.000001   0.000001
     3  O    0.000000   0.000000  -0.000174   0.000002   0.000000   0.000000
     4  O    0.000001  -0.000003  -0.032162   0.000910  -0.000033  -0.000017
     5  C   -0.000070   0.000723   0.158022  -0.022939   0.000118   0.002141
     6  O    0.000000   0.000000  -0.017056  -0.010324  -0.000283  -0.000108
     7  N    0.000000   0.000000   0.000531   0.000020  -0.000019   0.000000
     8  O    0.000000   0.000000  -0.000060   0.000000   0.000000   0.000000
     9  O    0.000000   0.000000  -0.000017  -0.000024   0.000001   0.000000
    10  C    0.003335   0.000388  -0.062632  -0.001309  -0.002007  -0.000122
    11  O   -0.084174  -0.088361   0.000679   0.000214  -0.000009   0.000001
    12  N    0.378803   0.319847  -0.000140  -0.000002   0.000009   0.000000
    13  O    8.163598  -0.073899   0.000000   0.000000   0.000000   0.000000
    14  O   -0.073899   8.266562  -0.000007   0.000001  -0.000003   0.000000
    15  O    0.000000  -0.000007   8.365394   0.104812  -0.056211  -0.043672
    16  N    0.000000   0.000001   0.104812   6.060246   0.163770   0.197549
    17  O    0.000000  -0.000003  -0.056211   0.163770   8.238514  -0.086770
    18  O    0.000000   0.000000  -0.043672   0.197549  -0.086770   8.119811
    19  H    0.000008   0.002670  -0.001004  -0.000014   0.005969   0.000050
    20  H   -0.000010   0.002329   0.002599  -0.000047   0.000159   0.000001
              19         20
     1  O    0.000007   0.000005
     2  N   -0.000013  -0.000139
     3  O    0.000001   0.000001
     4  O    0.002012  -0.000619
     5  C   -0.027688  -0.030708
     6  O    0.000266   0.001015
     7  N    0.000242  -0.001217
     8  O    0.000264   0.003139
     9  O   -0.000006  -0.000025
    10  C    0.381250   0.384326
    11  O   -0.026375  -0.028828
    12  N   -0.002675  -0.002794
    13  O    0.000008  -0.000010
    14  O    0.002670   0.002329
    15  O   -0.001004   0.002599
    16  N   -0.000014  -0.000047
    17  O    0.005969   0.000159
    18  O    0.000050   0.000001
    19  H    0.421097  -0.024047
    20  H   -0.024047   0.437339
 Mulliken charges:
               1
     1  O   -0.418145
     2  N    0.916702
     3  O   -0.373943
     4  O   -0.479751
     5  C    0.965534
     6  O   -0.536646
     7  N    0.923224
     8  O   -0.399838
     9  O   -0.362104
    10  C   -0.007224
    11  O   -0.495097
    12  N    0.914532
    13  O   -0.387592
    14  O   -0.430248
    15  O   -0.408947
    16  N    0.506130
    17  O   -0.263211
    18  O   -0.188886
    19  H    0.267987
    20  H    0.257522
 Sum of Mulliken charges =   0.00000
 Mulliken charges with hydrogens summed into heavy atoms:
               1
     1  O   -0.418145
     2  N    0.916702
     3  O   -0.373943
     4  O   -0.479751
     5  C    0.965534
     6  O   -0.536646
     7  N    0.923224
     8  O   -0.399838
     9  O   -0.362104
    10  C    0.518285
    11  O   -0.495097
    12  N    0.914532
    13  O   -0.387592
    14  O   -0.430248
    15  O   -0.408947
    16  N    0.506130
    17  O   -0.263211
    18  O   -0.188886
 Electronic spatial extent (au):  <R**2>=           4186.8512
 Charge=              0.0000 electrons
 Dipole moment (field-independent basis, Debye):
    X=              0.7483    Y=             -1.1531    Z=             -1.3550  Tot=              1.9302
 Quadrupole moment (field-independent basis, Debye-Ang):
   XX=           -115.4042   YY=           -108.0548   ZZ=           -107.2378
   XY=             -0.7769   XZ=              0.8172   YZ=              1.5905
 Traceless Quadrupole moment (field-independent basis, Debye-Ang):
   XX=             -5.1720   YY=              2.1775   ZZ=              2.9945
   XY=             -0.7769   XZ=              0.8172   YZ=              1.5905
 Octapole moment (field-independent basis, Debye-Ang**2):
  XXX=             45.1904  YYY=            -14.4700  ZZZ=             -1.2004  XYY=             -9.3706
  XXY=              8.3183  XXZ=             -9.0811  XZZ=             -7.4129  YZZ=              6.2964
  YYZ=              9.6874  XYZ=             -1.1375
 Hexadecapole moment (field-independent basis, Debye-Ang**3):
 XXXX=          -2749.9567 YYYY=          -1432.9070 ZZZZ=          -1081.1279 XXXY=            -62.0156
 XXXZ=             16.1781 YYYX=             -4.1063 YYYZ=             16.4473 ZZZX=             -0.6912
 ZZZY=             21.2195 XXYY=           -636.8691 XXZZ=           -655.2011 YYZZ=           -417.3591
 XXYZ=            -24.0505 YYXZ=             -9.4164 ZZXY=             21.3389
 N-N= 1.525518644161D+03 E-N=-5.856931912164D+03  KE= 1.186218794165D+03
 Calling FoFJK, ICntrl=      2127 FMM=F ISym2X=0 I1Cent= 0 IOpClX= 0 NMat=1 NMatS=1 NMatT=0.
 ***** Axes restored to original set *****
 -------------------------------------------------------------------
 Center     Atomic                   Forces (Hartrees/Bohr)
 Number     Number              X              Y              Z
 -------------------------------------------------------------------
      1        8           0.028294593    0.031617867   -0.077625023
      2        7          -0.043825835    0.017969474   -0.011544038
      3        8           0.043973113   -0.054571299    0.077631949
      4        8          -0.028539083   -0.005559975    0.054626812
      5        6           0.046640706    0.025807342   -0.027381800
      6        8           0.001904467    0.014155504   -0.028665978
      7        7          -0.011091972   -0.043963988   -0.021102360
      8        8          -0.017881484   -0.033879452    0.080607637
      9        8           0.032850412    0.094980932   -0.034804959
     10        6           0.006027713   -0.020326237   -0.015398846
     11        8           0.038852520   -0.010852954   -0.006922195
     12        7           0.016591874    0.013691642   -0.008035994
     13        8          -0.041513671   -0.092063974    0.017948377
     14        8          -0.028826982    0.082119309    0.003860809
     15        8          -0.055335580   -0.088864688    0.015747975
     16        7           0.154666429    0.200991663    0.132794505
     17        8          -0.130851319   -0.024413978   -0.047032788
     18        8           0.004465150   -0.124121431   -0.110790698
     19        1          -0.012401953    0.009385869   -0.005784741
     20        1          -0.003999098    0.007898375    0.011871355
 -------------------------------------------------------------------
 Cartesian Forces:  Max     0.200991663 RMS     0.059672987

 GradGradGradGradGradGradGradGradGradGradGradGradGradGradGradGradGradGrad
 Berny optimization.
 FormGI is forming the generalized inverse of G from B-inverse, IUseBI=4.
 Internal  Forces:  Max     0.157762898 RMS     0.040661577
 Search for a local minimum.
 Step number   1 out of a maximum of   90
 All quantities printed in internal units (Hartrees-Bohrs-Radians)
 Mixed Optimization -- RFO/linear search
 Second derivative matrix not updated -- first step.
 ITU=  0
     Eigenvalues ---    0.00230   0.00664   0.01048   0.01081   0.01178
     Eigenvalues ---    0.01179   0.01226   0.01242   0.01270   0.02914
     Eigenvalues ---    0.02976   0.02988   0.05070   0.05724   0.07163
     Eigenvalues ---    0.08243   0.08324   0.09616   0.11305   0.13724
     Eigenvalues ---    0.18830   0.18903   0.19334   0.22021   0.24996
     Eigenvalues ---    0.24999   0.25000   0.25000   0.25000   0.25000
     Eigenvalues ---    0.25000   0.25000   0.25000   0.25000   0.25000
     Eigenvalues ---    0.26413   0.34070   0.34250   0.38417   0.38548
     Eigenvalues ---    0.39747   0.39755   0.40718   0.42462   0.43043
     Eigenvalues ---    0.43187   0.44771   0.44966   0.90803   0.91251
     Eigenvalues ---    0.92231   0.92497   0.92897   0.93091
 RFO step:  Lambda=-2.02589364D-01 EMin= 2.30000000D-03
 Linear search not attempted -- first point.
 Maximum step size (   0.300) exceeded in Quadratic search.
    -- Step size scaled by   0.566
 Iteration  1 RMS(Cart)=  0.08077135 RMS(Int)=  0.00420466
 Iteration  2 RMS(Cart)=  0.00476048 RMS(Int)=  0.00160397
 Iteration  3 RMS(Cart)=  0.00004943 RMS(Int)=  0.00160357
 Iteration  4 RMS(Cart)=  0.00000048 RMS(Int)=  0.00160357
 Variable       Old X    -DE/DX   Delta X   Delta X   Delta X     New X
                                 (Linear)    (Quad)   (Total)
    R1        2.32362  -0.08820   0.00000  -0.04474  -0.04474   2.27888
    R2        2.31626  -0.10458   0.00000  -0.05227  -0.05227   2.26399
    R3        2.65315  -0.03041   0.00000  -0.02637  -0.02637   2.62678
    R4        2.71899  -0.03813   0.00000  -0.03594  -0.03594   2.68305
    R5        2.71888  -0.03082   0.00000  -0.02904  -0.02904   2.68984
    R6        2.95746  -0.02204   0.00000  -0.02671  -0.02671   2.93075
    R7        2.73764  -0.03265   0.00000  -0.03147  -0.03147   2.70616
    R8        2.65543  -0.03002   0.00000  -0.02611  -0.02611   2.62932
    R9        2.31803  -0.08884   0.00000  -0.04456  -0.04456   2.27347
   R10        2.31540  -0.10631   0.00000  -0.05304  -0.05304   2.26236
   R11        2.70590  -0.01382   0.00000  -0.01282  -0.01282   2.69308
   R12        2.07212  -0.01484   0.00000  -0.01544  -0.01544   2.05667
   R13        2.06911  -0.01445   0.00000  -0.01499  -0.01499   2.05411
   R14        2.67617  -0.05561   0.00000  -0.04968  -0.04968   2.62649
   R15        2.31921  -0.10254   0.00000  -0.05156  -0.05156   2.26766
   R16        2.32565  -0.08699   0.00000  -0.04430  -0.04430   2.28135
   R17        2.73575  -0.04834   0.00000  -0.04649  -0.04649   2.68926
   R18        2.68340  -0.12968   0.00000  -0.11694  -0.11694   2.56646
   R19        2.67439  -0.15776   0.00000  -0.14063  -0.14063   2.53376
    A1        2.27679  -0.00504   0.00000  -0.00630  -0.00630   2.27049
    A2        2.03526   0.01070   0.00000   0.01338   0.01338   2.04863
    A3        1.97087  -0.00566   0.00000  -0.00707  -0.00707   1.96380
    A4        1.97202   0.03341   0.00000   0.04175   0.04175   2.01377
    A5        2.03724   0.00560   0.00000   0.00600   0.00565   2.04289
    A6        1.84237  -0.00176   0.00000   0.00288   0.00286   1.84523
    A7        1.88337  -0.00557   0.00000  -0.01057  -0.01090   1.87247
    A8        1.90311   0.00389   0.00000   0.00901   0.00919   1.91230
    A9        1.96774  -0.02084   0.00000  -0.03586  -0.03610   1.93164
   A10        1.81275   0.02223   0.00000   0.03505   0.03520   1.84795
   A11        2.01994   0.03782   0.00000   0.04727   0.04727   2.06720
   A12        2.04547   0.01549   0.00000   0.01936   0.01936   2.06482
   A13        1.96353  -0.01124   0.00000  -0.01405  -0.01405   1.94948
   A14        2.27416  -0.00424   0.00000  -0.00530  -0.00530   2.26886
   A15        1.91116  -0.02089   0.00000  -0.02893  -0.02898   1.88218
   A16        1.91188  -0.00192   0.00000  -0.00591  -0.00593   1.90595
   A17        1.93174   0.00364   0.00000   0.00445   0.00452   1.93626
   A18        1.92382   0.00875   0.00000   0.01143   0.01119   1.93500
   A19        1.89188   0.00886   0.00000   0.01313   0.01309   1.90497
   A20        1.89327   0.00200   0.00000   0.00652   0.00645   1.89972
   A21        1.96386   0.00359   0.00000   0.00448   0.00448   1.96835
   A22        1.96713   0.00013   0.00000   0.00017   0.00017   1.96730
   A23        2.03892   0.00524   0.00000   0.00656   0.00656   2.04547
   A24        2.27706  -0.00536   0.00000  -0.00670  -0.00670   2.27036
   A25        1.91311   0.02559   0.00000   0.03198   0.03198   1.94509
   A26        1.85540   0.05145   0.00000   0.08025   0.07478   1.93018
   A27        1.86009  -0.00401   0.00000   0.01885   0.00921   1.86930
   A28        1.87427   0.07246   0.00000   0.12172   0.11664   1.99092
    D1       -3.11517  -0.00033   0.00000  -0.00072  -0.00072  -3.11589
    D2       -0.12400  -0.00094   0.00000  -0.00239  -0.00239  -0.12639
    D3        3.04008  -0.00101   0.00000  -0.00273  -0.00274   3.03734
    D4        1.09301  -0.01179   0.00000  -0.02297  -0.02307   1.06994
    D5       -3.07330  -0.00459   0.00000  -0.00541  -0.00535  -3.07864
    D6       -1.14347   0.01743   0.00000   0.03112   0.03116  -1.11231
    D7        0.84753   0.01024   0.00000   0.02271   0.02268   0.87022
    D8       -1.23705   0.00573   0.00000   0.00789   0.00776  -1.22929
    D9        3.04244  -0.01199   0.00000  -0.02013  -0.01996   3.02248
   D10        1.07301  -0.00079   0.00000  -0.00087  -0.00087   1.07214
   D11       -3.09849  -0.00430   0.00000  -0.00862  -0.00849  -3.10698
   D12       -1.01165  -0.00078   0.00000  -0.00153  -0.00149  -1.01314
   D13       -3.00840   0.00722   0.00000   0.01362   0.01347  -2.99493
   D14       -0.89671   0.00371   0.00000   0.00587   0.00585  -0.89086
   D15        1.19013   0.00724   0.00000   0.01295   0.01285   1.20298
   D16       -0.90658  -0.00305   0.00000  -0.00466  -0.00468  -0.91127
   D17        1.20511  -0.00656   0.00000  -0.01241  -0.01231   1.19280
   D18       -2.99124  -0.00303   0.00000  -0.00532  -0.00530  -2.99655
   D19        2.59981  -0.00796   0.00000  -0.01866  -0.01833   2.58148
   D20        0.32415   0.00543   0.00000   0.01004   0.00952   0.33367
   D21       -1.73345  -0.00221   0.00000  -0.00395  -0.00377  -1.73722
   D22       -0.06445   0.00142   0.00000   0.00379   0.00379  -0.06066
   D23        3.07041   0.00180   0.00000   0.00469   0.00468   3.07509
   D24        3.13343   0.00044   0.00000   0.00108   0.00108   3.13451
   D25        3.11057  -0.00269   0.00000  -0.00538  -0.00539   3.10518
   D26        1.00612   0.00748   0.00000   0.01318   0.01332   1.01944
   D27       -1.06360  -0.00535   0.00000  -0.00925  -0.00939  -1.07299
   D28       -3.13893   0.00024   0.00000   0.00059   0.00060  -3.13834
   D29        0.01432  -0.00047   0.00000  -0.00120  -0.00121   0.01311
   D30       -3.12791  -0.00093   0.00000  -0.00223  -0.00223  -3.13014
   D31        1.57084  -0.05428   0.00000  -0.09780  -0.09766   1.47319
   D32       -2.71697   0.04999   0.00000   0.08620   0.08605  -2.63091
   D33        1.98567   0.05280   0.00000   0.11505   0.12253   2.10820
         Item               Value     Threshold  Converged?
 Maximum Force            0.157763     0.000450     NO 
 RMS     Force            0.040662     0.000300     NO 
 Maximum Displacement     0.252607     0.001800     NO 
 RMS     Displacement     0.079828     0.001200     NO 
 Predicted change in Energy=-9.477216D-02
 GradGradGradGradGradGradGradGradGradGradGradGradGradGradGradGradGradGrad

                          Input orientation:                          
 ---------------------------------------------------------------------
 Center     Atomic      Atomic             Coordinates (Angstroms)
 Number     Number       Type             X           Y           Z
 ---------------------------------------------------------------------
      1          8           0       -2.884730    0.644638    0.243607
      2          7           0       -2.370423    1.028697   -0.777303
      3          8           0       -2.828321    1.674890   -1.676239
      4          8           0       -1.047789    0.665371   -1.002740
      5          6           0       -0.403148    0.011749    0.080346
      6          8           0       -0.956518   -1.227083    0.510633
      7          7           0       -1.221710   -2.202217   -0.445774
      8          8           0       -1.031295   -1.933160   -1.602806
      9          8           0       -1.614111   -3.216977    0.053771
     10          6           0        1.064342   -0.204268   -0.372489
     11          8           0        1.642183    1.077235   -0.606590
     12          7           0        2.980218    1.004898   -0.975623
     13          8           0        3.466642    2.084703   -1.169001
     14          8           0        3.469496   -0.095196   -1.064082
     15          8           0       -0.345043    0.943802    1.165997
     16          7           0       -0.427641    0.283272    2.423803
     17          8           0        0.796777   -0.156222    2.813817
     18          8           0       -1.000224    1.139622    3.282043
     19          1           0        1.605035   -0.736672    0.407697
     20          1           0        1.106260   -0.787082   -1.289068
 ---------------------------------------------------------------------
                    Distance matrix (angstroms):
                    1          2          3          4          5
     1  O    0.000000
     2  N    1.205932   0.000000
     3  O    2.179544   1.198050   0.000000
     4  O    2.219947   1.390031   2.154767   0.000000
     5  C    2.566214   2.374850   3.425360   1.419810   0.000000
     6  O    2.700489   2.957439   4.087481   2.424874   1.423401
     7  N    3.368303   3.445034   4.373466   2.926350   2.418366
     8  O    3.672807   3.353702   4.031466   2.666968   2.647686
     9  O    4.069715   4.391860   5.328940   4.063197   3.448451
    10  C    4.085999   3.671741   4.514845   2.369512   1.550887
    11  O    4.626328   4.016528   4.635379   2.750003   2.406350
    12  N    6.001160   5.354367   5.888877   4.042382   3.680840
    13  O    6.664021   5.944737   6.328648   4.735212   4.564348
    14  O    6.529441   5.953992   6.570421   4.581276   4.039619
    15  O    2.718513   2.808164   3.844407   2.296692   1.432039
    16  N    3.304713   3.818002   4.950779   3.503111   2.359262
    17  O    4.560795   4.932680   6.054330   4.317818   2.989966
    18  O    3.609497   4.285795   5.311593   4.311212   3.446660
    19  H    4.700313   4.508328   5.460135   3.315500   2.167970
    20  H    4.508539   3.955538   4.657482   2.613721   2.189004
                    6          7          8          9         10
     6  O    0.000000
     7  N    1.391377   0.000000
     8  O    2.229521   1.203069   0.000000
     9  O    2.144955   1.197189   2.175341   0.000000
    10  C    2.431035   3.036974   2.982355   4.053668   0.000000
    11  O    3.648467   4.356897   4.147579   5.429529   1.425115
    12  N    4.763254   5.312488   5.011764   6.323903   2.344447
    13  O    5.775244   6.393855   6.046722   7.444262   3.412457
    14  O    4.832235   5.179697   4.891365   6.069446   2.504987
    15  O    2.348647   3.641948   4.051434   4.489951   2.381463
    16  N    2.494214   3.878489   4.635790   4.390502   3.206705
    17  O    3.086332   4.345724   5.099600   4.774773   3.197881
    18  O    3.644711   5.011344   5.771023   5.456973   4.407276
    19  H    2.610106   3.296472   3.524762   4.079226   1.088345
    20  H    2.772648   2.851876   2.445622   3.886904   1.086990
                   11         12         13         14         15
    11  O    0.000000
    12  N    1.389877   0.000000
    13  O    2.158691   1.199992   0.000000
    14  O    2.218776   1.207239   2.182424   0.000000
    15  O    2.666258   3.955708   4.613329   4.539105   0.000000
    16  N    3.754707   4.867273   5.596323   5.243687   1.423095
    17  O    3.733003   4.524983   5.292708   4.710122   2.286726
    18  O    4.701880   5.830077   6.376352   6.355468   2.223795
    19  H    2.078562   2.614913   3.729841   2.460455   2.683620
    20  H    2.056373   2.611735   3.719270   2.472692   3.336103
                   16         17         18         19         20
    16  N    0.000000
    17  O    1.358111   0.000000
    18  O    1.340807   2.264434   0.000000
    19  H    3.039201   2.603770   4.309260   0.000000
    20  H    4.157393   4.162623   5.389297   1.769274   0.000000
 Stoichiometry    C2H2N4O12
 Framework group  C1[X(C2H2N4O12)]
 Deg. of freedom    54
 Full point group                 C1      NOp   1
 Largest Abelian subgroup         C1      NOp   1
 Largest concise Abelian subgroup C1      NOp   1
                         Standard orientation:                         
 ---------------------------------------------------------------------
 Center     Atomic      Atomic             Coordinates (Angstroms)
 Number     Number       Type             X           Y           Z
 ---------------------------------------------------------------------
      1          8           0        2.480003    0.194728    1.306031
      2          7           0        1.724419   -0.609460    1.792494
      3          8           0        1.838529   -1.274987    2.782128
      4          8           0        0.533612   -0.856394    1.119302
      5          6           0        0.273740   -0.007746    0.011094
      6          8           0        1.206537   -0.042421   -1.063502
      7          7           0        1.572961   -1.279962   -1.583265
      8          8           0        1.134412   -2.270773   -1.060443
      9          8           0        2.302718   -1.165797   -2.525434
     10          6           0       -1.131028   -0.411676   -0.507287
     11          8           0       -2.067488   -0.176507    0.540898
     12          7           0       -3.375498   -0.462706    0.168128
     13          8           0       -4.163504   -0.260924    1.050348
     14          8           0       -3.552220   -0.874580   -0.952833
     15          8           0        0.136111    1.324351    0.518353
     16          7           0        0.595708    2.289061   -0.421490
     17          8           0       -0.383082    2.591248   -1.313184
     18          8           0        1.040794    3.341730    0.279617
     19          1           0       -1.373751    0.184375   -1.384956
     20          1           0       -1.157037   -1.463784   -0.779203
 ---------------------------------------------------------------------
 Rotational constants (GHZ):           0.4826996           0.3196205           0.2985767
 Standard basis: 6-31G(d) (6D, 7F)
 There are   274 symmetry adapted cartesian basis functions of A   symmetry.
 There are   274 symmetry adapted basis functions of A   symmetry.
   274 basis functions,   512 primitive gaussians,   274 cartesian basis functions
    69 alpha electrons       69 beta electrons
       nuclear repulsion energy      1541.8941468565 Hartrees.
 NAtoms=   20 NActive=   20 NUniq=   20 SFac= 1.00D+00 NAtFMM=   60 NAOKFM=F Big=F
 Integral buffers will be    131072 words long.
 Raffenetti 1 integral format.
 Two-electron integral symmetry is turned on.
 One-electron integrals computed using PRISM.
 NBasis=   274 RedAO= T EigKep=  1.61D-03  NBF=   274
 NBsUse=   274 1.00D-06 EigRej= -1.00D+00 NBFU=   274
 Initial guess from the checkpoint file:  "C:\g16w\Scratch\Gau-20660.chk"
 B after Tr=     0.000000    0.000000    0.000000
         Rot=    0.999218   -0.032500    0.015303    0.016494 Ang=  -4.53 deg.
 ExpMin= 1.61D-01 ExpMax= 5.48D+03 ExpMxC= 8.25D+02 IAcc=3 IRadAn=         5 AccDes= 0.00D+00
 Harris functional with IExCor=  205 and IRadAn=       5 diagonalized for initial guess.
 HarFok:  IExCor=  205 AccDes= 0.00D+00 IRadAn=         5 IDoV= 1 UseB2=F ITyADJ=14
 ICtDFT=  3500011 ScaDFX=  1.000000  1.000000  1.000000  1.000000
 FoFCou: FMM=F IPFlag=           0 FMFlag=      100000 FMFlg1=           0
         NFxFlg=           0 DoJE=T BraDBF=F KetDBF=T FulRan=T
         wScrn=  0.000000 ICntrl=       500 IOpCl=  0 I1Cent=   200000004 NGrid=           0
         NMat0=    1 NMatS0=      1 NMatT0=    0 NMatD0=    1 NMtDS0=    0 NMtDT0=    0
 Petite list used in FoFCou.
 Requested convergence on RMS density matrix=1.00D-08 within 128 cycles.
 Requested convergence on MAX density matrix=1.00D-06.
 Requested convergence on             energy=1.00D-06.
 No special actions if energy rises.
 Integral accuracy reduced to 1.0D-05 until final iterations.
 Initial convergence to 1.0D-05 achieved.  Increase integral accuracy.
 SCF Done:  E(RHF) =  -1192.15290094     A.U. after   22 cycles
            NFock= 22  Conv=0.57D-08     -V/T= 2.0042
 Calling FoFJK, ICntrl=      2127 FMM=F ISym2X=0 I1Cent= 0 IOpClX= 0 NMat=1 NMatS=1 NMatT=0.
 ***** Axes restored to original set *****
 -------------------------------------------------------------------
 Center     Atomic                   Forces (Hartrees/Bohr)
 Number     Number              X              Y              Z
 -------------------------------------------------------------------
      1        8           0.021041258    0.016945438   -0.045054296
      2        7          -0.029423965    0.012784304   -0.009211038
      3        8           0.025384244   -0.033018260    0.046350383
      4        8          -0.016851004   -0.008615491    0.037275510
      5        6           0.035148576    0.019391952   -0.023456382
      6        8          -0.000138644    0.014494643   -0.017012741
      7        7          -0.009301723   -0.032143817   -0.008017111
      8        8          -0.007644378   -0.010503104    0.049357449
      9        8           0.019971980    0.055023138   -0.024351584
     10        6           0.001444086   -0.012654919   -0.010962996
     11        8           0.027329200   -0.010219108   -0.004681417
     12        7           0.005090900    0.013726168   -0.004231623
     13        8          -0.022066512   -0.054516099    0.009645951
     14        8          -0.017690991    0.045545823    0.003623068
     15        8          -0.043702976   -0.077879834    0.010006522
     16        7           0.128107319    0.181357917    0.145307566
     17        8          -0.129862494   -0.005938889   -0.053259225
     18        8           0.024612799   -0.125112395   -0.105933615
     19        1          -0.007762814    0.006721797   -0.002072027
     20        1          -0.003684861    0.004610735    0.006677606
 -------------------------------------------------------------------
 Cartesian Forces:  Max     0.181357917 RMS     0.050532539

 GradGradGradGradGradGradGradGradGradGradGradGradGradGradGradGradGradGrad
 Berny optimization.
 Using GEDIIS/GDIIS optimizer.
 FormGI is forming the generalized inverse of G from B-inverse, IUseBI=4.
 Internal  Forces:  Max     0.158225137 RMS     0.031750721
 Search for a local minimum.
 Step number   2 out of a maximum of   90
 All quantities printed in internal units (Hartrees-Bohrs-Radians)
 Mixed Optimization -- RFO/linear search
 Update second derivatives using D2CorX and points    1    2
 DE= -1.04D-01 DEPred=-9.48D-02 R= 1.09D+00
 TightC=F SS=  1.41D+00  RLast= 3.51D-01 DXNew= 5.0454D-01 1.0533D+00
 Trust test= 1.09D+00 RLast= 3.51D-01 DXMaxT set to 5.05D-01
 ITU=  1  0
 Use linear search instead of GDIIS.
 Linear search step of   0.592 exceeds DXMaxT=   0.505 but not scaled.
 Quartic linear search produced a step of  2.00000.
 Iteration  1 RMS(Cart)=  0.14850723 RMS(Int)=  0.02135198
 Iteration  2 RMS(Cart)=  0.02172610 RMS(Int)=  0.00891530
 Iteration  3 RMS(Cart)=  0.00033256 RMS(Int)=  0.00890957
 Iteration  4 RMS(Cart)=  0.00001256 RMS(Int)=  0.00890957
 Iteration  5 RMS(Cart)=  0.00000051 RMS(Int)=  0.00890957
 Variable       Old X    -DE/DX   Delta X   Delta X   Delta X     New X
                                 (Linear)    (Quad)   (Total)
    R1        2.27888  -0.05251  -0.08947   0.00000  -0.08947   2.18941
    R2        2.26399  -0.06229  -0.10455   0.00000  -0.10455   2.15944
    R3        2.62678  -0.01832  -0.05274   0.00000  -0.05274   2.57403
    R4        2.68305  -0.02795  -0.07187   0.00000  -0.07187   2.61118
    R5        2.68984  -0.02452  -0.05808   0.00000  -0.05808   2.63175
    R6        2.93075  -0.01488  -0.05342   0.00000  -0.05342   2.87734
    R7        2.70616  -0.02173  -0.06295   0.00000  -0.06295   2.64321
    R8        2.62932  -0.02093  -0.05221   0.00000  -0.05221   2.57711
    R9        2.27347  -0.05103  -0.08912   0.00000  -0.08912   2.18435
   R10        2.26236  -0.06335  -0.10609   0.00000  -0.10609   2.15627
   R11        2.69308  -0.00860  -0.02564   0.00000  -0.02564   2.66744
   R12        2.05667  -0.00863  -0.03089   0.00000  -0.03089   2.02579
   R13        2.05411  -0.00824  -0.02999   0.00000  -0.02999   2.02413
   R14        2.62649  -0.03602  -0.09937   0.00000  -0.09937   2.52712
   R15        2.26766  -0.05956  -0.10311   0.00000  -0.10311   2.16454
   R16        2.28135  -0.04894  -0.08860   0.00000  -0.08860   2.19275
   R17        2.68926  -0.03695  -0.09298   0.00000  -0.09298   2.59628
   R18        2.56646  -0.13045  -0.23388   0.00000  -0.23388   2.33258
   R19        2.53376  -0.15823  -0.28127   0.00000  -0.28127   2.25249
    A1        2.27049   0.00009  -0.01259   0.00000  -0.01259   2.25790
    A2        2.04863   0.00329   0.02675   0.00000   0.02675   2.07539
    A3        1.96380  -0.00338  -0.01414   0.00000  -0.01414   1.94966
    A4        2.01377   0.02016   0.08349   0.00000   0.08349   2.09727
    A5        2.04289   0.00064   0.01130   0.00000   0.00923   2.05213
    A6        1.84523  -0.00106   0.00573   0.00000   0.00561   1.85084
    A7        1.87247  -0.00215  -0.02181   0.00000  -0.02373   1.84874
    A8        1.91230   0.00465   0.01838   0.00000   0.01940   1.93169
    A9        1.93164  -0.01576  -0.07220   0.00000  -0.07348   1.85816
   A10        1.84795   0.01613   0.07039   0.00000   0.07112   1.91907
   A11        2.06720   0.01250   0.09453   0.00000   0.09453   2.16174
   A12        2.06482   0.00022   0.03871   0.00000   0.03871   2.10353
   A13        1.94948  -0.00280  -0.02810   0.00000  -0.02810   1.92138
   A14        2.26886   0.00258  -0.01060   0.00000  -0.01060   2.25826
   A15        1.88218  -0.01275  -0.05795   0.00000  -0.05823   1.82396
   A16        1.90595  -0.00176  -0.01186   0.00000  -0.01195   1.89400
   A17        1.93626   0.00116   0.00904   0.00000   0.00945   1.94571
   A18        1.93500   0.00495   0.02237   0.00000   0.02087   1.95587
   A19        1.90497   0.00609   0.02618   0.00000   0.02589   1.93087
   A20        1.89972   0.00231   0.01289   0.00000   0.01241   1.91213
   A21        1.96835   0.00777   0.00897   0.00000   0.00897   1.97732
   A22        1.96730   0.00162   0.00033   0.00000   0.00033   1.96762
   A23        2.04547   0.00176   0.01311   0.00000   0.01311   2.05858
   A24        2.27036  -0.00337  -0.01340   0.00000  -0.01340   2.25696
   A25        1.94509   0.02260   0.06396   0.00000   0.06396   2.00905
   A26        1.93018   0.02975   0.14956   0.00000   0.11047   2.04064
   A27        1.86930  -0.00042   0.01842   0.00000  -0.03153   1.83777
   A28        1.99092   0.05408   0.23328   0.00000   0.20159   2.19251
    D1       -3.11589  -0.00021  -0.00144   0.00000  -0.00143  -3.11733
    D2       -0.12639  -0.00128  -0.00478   0.00000  -0.00477  -0.13116
    D3        3.03734  -0.00142  -0.00547   0.00000  -0.00548   3.03186
    D4        1.06994  -0.00993  -0.04614   0.00000  -0.04662   1.02332
    D5       -3.07864  -0.00429  -0.01069   0.00000  -0.01031  -3.08895
    D6       -1.11231   0.01258   0.06232   0.00000   0.06242  -1.04989
    D7        0.87022   0.00670   0.04537   0.00000   0.04514   0.91536
    D8       -1.22929   0.00393   0.01551   0.00000   0.01474  -1.21455
    D9        3.02248  -0.00929  -0.03992   0.00000  -0.03893   2.98355
   D10        1.07214   0.00121  -0.00173   0.00000  -0.00174   1.07040
   D11       -3.10698  -0.00142  -0.01698   0.00000  -0.01621  -3.12319
   D12       -1.01314   0.00102  -0.00297   0.00000  -0.00269  -1.01583
   D13       -2.99493   0.00418   0.02694   0.00000   0.02608  -2.96885
   D14       -0.89086   0.00155   0.01170   0.00000   0.01160  -0.87926
   D15        1.20298   0.00399   0.02570   0.00000   0.02512   1.22810
   D16       -0.91127  -0.00288  -0.00937   0.00000  -0.00956  -0.92082
   D17        1.19280  -0.00550  -0.02461   0.00000  -0.02403   1.16877
   D18       -2.99655  -0.00306  -0.01061   0.00000  -0.01051  -3.00706
   D19        2.58148  -0.00625  -0.03666   0.00000  -0.03457   2.54691
   D20        0.33367   0.00558   0.01905   0.00000   0.01590   0.34957
   D21       -1.73722  -0.00106  -0.00754   0.00000  -0.00649  -1.74371
   D22       -0.06066   0.00096   0.00758   0.00000   0.00758  -0.05308
   D23        3.07509   0.00145   0.00937   0.00000   0.00937   3.08446
   D24        3.13451   0.00057   0.00216   0.00000   0.00216   3.13667
   D25        3.10518  -0.00162  -0.01077   0.00000  -0.01079   3.09439
   D26        1.01944   0.00554   0.02664   0.00000   0.02746   1.04690
   D27       -1.07299  -0.00427  -0.01879   0.00000  -0.01960  -1.09259
   D28       -3.13834   0.00025   0.00120   0.00000   0.00123  -3.13710
   D29        0.01311  -0.00041  -0.00242   0.00000  -0.00246   0.01065
   D30       -3.13014  -0.00081  -0.00445   0.00000  -0.00442  -3.13456
   D31        1.47319  -0.04584  -0.19532   0.00000  -0.18476   1.28843
   D32       -2.63091   0.04007   0.17210   0.00000   0.16154  -2.46937
   D33        2.10820   0.05963   0.24507   0.00000   0.27769   2.38590
         Item               Value     Threshold  Converged?
 Maximum Force            0.158225     0.000450     NO 
 RMS     Force            0.031751     0.000300     NO 
 Maximum Displacement     0.457780     0.001800     NO 
 RMS     Displacement     0.153418     0.001200     NO 
 Predicted change in Energy=-1.364038D-01
 GradGradGradGradGradGradGradGradGradGradGradGradGradGradGradGradGradGrad

                          Input orientation:                          
 ---------------------------------------------------------------------
 Center     Atomic      Atomic             Coordinates (Angstroms)
 Number     Number       Type             X           Y           Z
 ---------------------------------------------------------------------
      1          8           0       -2.838810    0.752911    0.172303
      2          7           0       -2.260769    1.097916   -0.770649
      3          8           0       -2.617099    1.743908   -1.643315
      4          8           0       -0.972750    0.688412   -0.940011
      5          6           0       -0.322436    0.006409    0.070567
      6          8           0       -0.888873   -1.187132    0.511162
      7          7           0       -1.234334   -2.215025   -0.315820
      8          8           0       -1.113268   -2.113377   -1.460866
      9          8           0       -1.619926   -3.097616    0.296017
     10          6           0        1.099177   -0.223460   -0.423952
     11          8           0        1.621991    1.074043   -0.612674
     12          7           0        2.902618    1.077274   -0.997819
     13          8           0        3.318407    2.134571   -1.143571
     14          8           0        3.429489    0.053647   -1.142778
     15          8           0       -0.311324    0.869891    1.170892
     16          7           0       -0.413349    0.255259    2.395393
     17          8           0        0.584868   -0.344570    2.804516
     18          8           0       -1.110812    0.968300    3.048005
     19          1           0        1.636600   -0.768959    0.326243
     20          1           0        1.110598   -0.772401   -1.343645
 ---------------------------------------------------------------------
                    Distance matrix (angstroms):
                    1          2          3          4          5
     1  O    0.000000
     2  N    1.158585   0.000000
     3  O    2.080312   1.142726   0.000000
     4  O    2.173381   1.362120   2.076678   0.000000
     5  C    2.626739   2.378270   3.349892   1.381776   0.000000
     6  O    2.771434   2.957462   4.027347   2.372889   1.392664
     7  N    3.408996   3.498002   4.398572   2.981273   2.432205
     8  O    3.722949   3.479305   4.144085   2.853254   2.732068
     9  O    4.040736   4.376179   5.309964   4.034924   3.371836
    10  C    4.100801   3.627048   4.378138   2.321790   1.522620
    11  O    4.540711   3.886046   4.413708   2.643584   2.321089
    12  N    5.868424   5.168424   5.597173   3.895258   3.562187
    13  O    6.446071   5.686909   5.969305   4.532862   4.388501
    14  O    6.442824   5.797243   6.298313   4.452387   3.943524
    15  O    2.720119   2.760782   3.741693   2.219534   1.398729
    16  N    3.327558   3.761230   4.835674   3.409614   2.339873
    17  O    4.455848   4.791683   5.864941   4.185058   2.901873
    18  O    3.361849   3.990153   4.987880   4.000208   3.226749
    19  H    4.729596   4.458462   5.318610   3.245926   2.122354
    20  H    4.496944   3.897760   4.507476   2.576283   2.158733
                    6          7          8          9         10
     6  O    0.000000
     7  N    1.363748   0.000000
     8  O    2.190246   1.155907   0.000000
     9  O    2.056861   1.141049   2.076552   0.000000
    10  C    2.399051   3.069740   3.088995   4.021523   0.000000
    11  O    3.560948   4.366313   4.284941   5.360829   1.411547
    12  N    4.666900   5.330922   5.149952   6.289445   2.296439
    13  O    5.610085   6.350718   6.146990   7.337256   3.317099
    14  O    4.787828   5.251856   5.043195   6.123495   2.454354
    15  O    2.236102   3.546685   4.058221   4.268368   2.393420
    16  N    2.420112   3.758590   4.579417   4.135817   3.235060
    17  O    2.853296   4.067506   4.919943   4.328158   3.271420
    18  O    3.336273   4.632940   5.461379   4.936021   4.284721
    19  H    2.566530   3.278051   3.544431   4.003563   1.072000
    20  H    2.758658   2.938758   2.599526   3.943461   1.071122
                   11         12         13         14         15
    11  O    0.000000
    12  N    1.337294   0.000000
    13  O    2.069879   1.145427   0.000000
    14  O    2.142258   1.160352   2.083886   0.000000
    15  O    2.638274   3.882749   4.486770   4.473590   0.000000
    16  N    3.723101   4.815105   5.475590   5.227495   1.373893
    17  O    3.842561   4.674543   5.404236   4.881760   2.224141
    18  O    4.569460   5.699841   6.208662   6.246086   2.042650
    19  H    2.068438   2.600868   3.663238   2.459503   2.682103
    20  H    2.050658   2.598505   3.655808   2.469809   3.322934
                   16         17         18         19         20
    16  N    0.000000
    17  O    1.234348   0.000000
    18  O    1.191967   2.158297   0.000000
    19  H    3.087507   2.725452   4.239615   0.000000
    20  H    4.166402   4.203175   5.220277   1.750776   0.000000
 Stoichiometry    C2H2N4O12
 Framework group  C1[X(C2H2N4O12)]
 Deg. of freedom    54
 Full point group                 C1      NOp   1
 Largest Abelian subgroup         C1      NOp   1
 Largest concise Abelian subgroup C1      NOp   1
                         Standard orientation:                         
 ---------------------------------------------------------------------
 Center     Atomic      Atomic             Coordinates (Angstroms)
 Number     Number       Type             X           Y           Z
 ---------------------------------------------------------------------
      1          8           0        2.296604   -0.364124    1.525023
      2          7           0        1.442318   -1.129933    1.686422
      3          8           0        1.369322   -1.986405    2.439381
      4          8           0        0.347279   -1.074982    0.878187
      5          6           0        0.191898   -0.028168   -0.010262
      6          8           0        1.191270    0.164415   -0.960883
      7          7           0        1.649052   -0.815713   -1.791300
      8          8           0        1.247391   -1.895899   -1.701921
      9          8           0        2.421830   -0.387994   -2.513701
     10          6           0       -1.156390   -0.244464   -0.683840
     11          8           0       -2.091789   -0.190036    0.371874
     12          7           0       -3.359426   -0.304725   -0.038368
     13          8           0       -4.110415   -0.254630    0.825060
     14          8           0       -3.553075   -0.443077   -1.174051
     15          8           0        0.155831    1.133530    0.767942
     16          7           0        0.720424    2.242752    0.186183
     17          8           0        0.083000    2.782847   -0.722445
     18          8           0        1.284018    2.809237    1.070627
     19          1           0       -1.309673    0.539741   -1.398481
     20          1           0       -1.200085   -1.193664   -1.178221
 ---------------------------------------------------------------------
 Rotational constants (GHZ):           0.5088471           0.3257938           0.3159146
 Standard basis: 6-31G(d) (6D, 7F)
 There are   274 symmetry adapted cartesian basis functions of A   symmetry.
 There are   274 symmetry adapted basis functions of A   symmetry.
   274 basis functions,   512 primitive gaussians,   274 cartesian basis functions
    69 alpha electrons       69 beta electrons
       nuclear repulsion energy      1581.8582322330 Hartrees.
 NAtoms=   20 NActive=   20 NUniq=   20 SFac= 1.00D+00 NAtFMM=   60 NAOKFM=F Big=F
 Integral buffers will be    131072 words long.
 Raffenetti 1 integral format.
 Two-electron integral symmetry is turned on.
 One-electron integrals computed using PRISM.
 NBasis=   274 RedAO= T EigKep=  1.33D-03  NBF=   274
 NBsUse=   274 1.00D-06 EigRej= -1.00D+00 NBFU=   274
 Initial guess from the checkpoint file:  "C:\g16w\Scratch\Gau-20660.chk"
 B after Tr=     0.000000    0.000000    0.000000
         Rot=    0.990420   -0.131422    0.030032    0.029897 Ang= -15.87 deg.
 ExpMin= 1.61D-01 ExpMax= 5.48D+03 ExpMxC= 8.25D+02 IAcc=3 IRadAn=         5 AccDes= 0.00D+00
 Harris functional with IExCor=  205 and IRadAn=       5 diagonalized for initial guess.
 HarFok:  IExCor=  205 AccDes= 0.00D+00 IRadAn=         5 IDoV= 1 UseB2=F ITyADJ=14
 ICtDFT=  3500011 ScaDFX=  1.000000  1.000000  1.000000  1.000000
 FoFCou: FMM=F IPFlag=           0 FMFlag=      100000 FMFlg1=           0
         NFxFlg=           0 DoJE=T BraDBF=F KetDBF=T FulRan=T
         wScrn=  0.000000 ICntrl=       500 IOpCl=  0 I1Cent=   200000004 NGrid=           0
         NMat0=    1 NMatS0=      1 NMatT0=    0 NMatD0=    1 NMtDS0=    0 NMtDT0=    0
 Petite list used in FoFCou.
 Requested convergence on RMS density matrix=1.00D-08 within 128 cycles.
 Requested convergence on MAX density matrix=1.00D-06.
 Requested convergence on             energy=1.00D-06.
 No special actions if energy rises.
 Integral accuracy reduced to 1.0D-05 until final iterations.
 Initial convergence to 1.0D-05 achieved.  Increase integral accuracy.
 SCF Done:  E(RHF) =  -1192.25963451     A.U. after   18 cycles
            NFock= 18  Conv=0.80D-08     -V/T= 2.0019
 Calling FoFJK, ICntrl=      2127 FMM=F ISym2X=0 I1Cent= 0 IOpClX= 0 NMat=1 NMatS=1 NMatT=0.
 ***** Axes restored to original set *****
 -------------------------------------------------------------------
 Center     Atomic                   Forces (Hartrees/Bohr)
 Number     Number              X              Y              Z
 -------------------------------------------------------------------
      1        8          -0.013303865   -0.019279676    0.038350754
      2        7           0.015920174   -0.009127121    0.004226833
      3        8          -0.013699701    0.033196599   -0.045555498
      4        8           0.006580669   -0.012904099    0.000660122
      5        6           0.015420582    0.009783142   -0.011738763
      6        8          -0.002253950    0.016363307    0.002236131
      7        7           0.005776920    0.014751909    0.015164575
      8        8           0.011885757    0.021859759   -0.045465236
      9        8          -0.021403502   -0.046433147    0.032602793
     10        6          -0.006812828    0.000564000   -0.001763427
     11        8          -0.005063975   -0.011493382    0.003521572
     12        7          -0.030615437    0.002880233    0.008055213
     13        8           0.024382286    0.056479995   -0.007966581
     14        8           0.021190764   -0.048021616   -0.005250488
     15        8          -0.009116904   -0.050268136   -0.024724362
     16        7           0.080709198    0.110090540    0.077235815
     17        8          -0.066310494   -0.008582685   -0.038454888
     18        8          -0.012727919   -0.058991112   -0.002046588
     19        1           0.002297292    0.000772733    0.005288775
     20        1          -0.002855069   -0.001641244   -0.004376751
 -------------------------------------------------------------------
 Cartesian Forces:  Max     0.110090540 RMS     0.031327290

 GradGradGradGradGradGradGradGradGradGradGradGradGradGradGradGradGradGrad
 Berny optimization.
 Using GEDIIS/GDIIS optimizer.
 FormGI is forming the generalized inverse of G from B-inverse, IUseBI=4.
 Internal  Forces:  Max     0.064809522 RMS     0.020437853
 Search for a local minimum.
 Step number   3 out of a maximum of   90
 All quantities printed in internal units (Hartrees-Bohrs-Radians)
 Mixed Optimization -- RFO/linear search
 Update second derivatives using D2CorX and points    2    3
 ITU=  0  1  0
 Use linear search instead of GDIIS.
     Eigenvalues ---    0.00230   0.00664   0.01048   0.01081   0.01178
     Eigenvalues ---    0.01179   0.01226   0.01242   0.01270   0.02871
     Eigenvalues ---    0.02887   0.02941   0.02991   0.05609   0.05895
     Eigenvalues ---    0.06673   0.07754   0.10582   0.10670   0.13315
     Eigenvalues ---    0.18685   0.19709   0.22016   0.22768   0.24159
     Eigenvalues ---    0.24997   0.25000   0.25000   0.25000   0.25000
     Eigenvalues ---    0.25000   0.25000   0.25000   0.25007   0.26110
     Eigenvalues ---    0.26809   0.34092   0.34276   0.37735   0.38582
     Eigenvalues ---    0.39117   0.39752   0.40007   0.40734   0.43082
     Eigenvalues ---    0.44456   0.44861   0.45979   0.90959   0.91406
     Eigenvalues ---    0.92356   0.92656   0.92997   1.05244
 RFO step:  Lambda=-8.87648750D-02 EMin= 2.30000306D-03
 Quartic linear search produced a step of  0.04163.
 Iteration  1 RMS(Cart)=  0.07001214 RMS(Int)=  0.03529196
 Iteration  2 RMS(Cart)=  0.02614282 RMS(Int)=  0.00941299
 Iteration  3 RMS(Cart)=  0.00454323 RMS(Int)=  0.00791834
 Iteration  4 RMS(Cart)=  0.00012336 RMS(Int)=  0.00791718
 Iteration  5 RMS(Cart)=  0.00000262 RMS(Int)=  0.00791718
 Iteration  6 RMS(Cart)=  0.00000006 RMS(Int)=  0.00791718
 Variable       Old X    -DE/DX   Delta X   Delta X   Delta X     New X
                                 (Linear)    (Quad)   (Total)
    R1        2.18941   0.04359  -0.00372   0.03860   0.03487   2.22428
    R2        2.15944   0.05783  -0.00435   0.05055   0.04620   2.20564
    R3        2.57403   0.01155  -0.00220   0.01901   0.01681   2.59085
    R4        2.61118  -0.00019  -0.00299  -0.00268  -0.00567   2.60551
    R5        2.63175  -0.00173  -0.00242  -0.00570  -0.00812   2.62363
    R6        2.87734   0.00323  -0.00222   0.00728   0.00505   2.88239
    R7        2.64321   0.00460  -0.00262   0.00757   0.00495   2.64816
    R8        2.57711   0.00695  -0.00217   0.01047   0.00830   2.58541
    R9        2.18435   0.04821  -0.00371   0.04255   0.03884   2.22318
   R10        2.15627   0.06063  -0.00442   0.05294   0.04853   2.20480
   R11        2.66744   0.00374  -0.00107   0.00653   0.00546   2.67290
   R12        2.02579   0.00446  -0.00129   0.00929   0.00800   2.03379
   R13        2.02413   0.00457  -0.00125   0.00954   0.00829   2.03242
   R14        2.52712   0.01584  -0.00414   0.02605   0.02192   2.54904
[...]
 0342604,0.01042938,0.00123897,0.01591379,0.00183085,-0.06627914,-0.025
 10775,-0.16173682,0.01332475,0.06004329,0.15624716,-0.00114807,-0.0019
 7985,0.00314369,0.00317461,0.00148854,-0.00607730,0.00026756,-0.001568
 61,0.00253460,0.00027953,-0.00022776,0.00681976,0.00849792,0.01840593,
 -0.01912409,0.01615609,-0.05853968,-0.06632668,0.20506390,-0.00156234,
 -0.58897451,-0.30932590,-0.02343276,0.73340543,0.00280324,0.00060067,-
 0.00126901,-0.00668585,0.00089688,0.00199172,0.00126747,-0.00015381,-0
 .00037588,0.00237958,-0.00406053,0.00050548,0.00760330,0.00623355,-0.0
 0196563,0.00490916,-0.04836423,-0.00134754,-0.29570568,-0.25671388,0.1
 4067539,-0.01428320,-0.04891692,0.08159597,0.29747027,0.00332761,-0.00
 021777,-0.00073806,-0.00904667,0.00339396,0.00024677,0.00222664,-0.001
 34600,0.00079934,0.00452259,-0.00569493,0.00243416,0.00543187,0.020574
 68,-0.01510982,-0.06432262,-0.12165818,0.00306523,-0.24605292,-0.50369
 413,0.18133374,-0.04862957,0.01002609,0.07618406,0.35361233,0.61018180
 ,-0.00111481,-0.00066989,0.00119775,0.00236405,0.00043187,-0.00229829,
 -0.00018015,-0.00045585,0.00089922,-0.00053005,-0.00019242,0.00268510,
 0.00337592,0.00054499,-0.00665838,-0.01848981,-0.03508145,0.03469980,0
 .15135796,0.20555252,-0.26420420,0.08373110,0.07881061,-0.06741263,-0.
 21858107,-0.24656431,0.30113010,0.00048858,-0.00105051,0.00075014,-0.0
 0049547,0.00325778,-0.00325995,0.00029327,-0.00073219,0.00072044,-0.03
 294835,0.01182204,-0.00223793,-0.20098035,0.03292972,0.04070260,-0.004
 79448,0.00000306,0.00519067,-0.00380323,-0.00922564,-0.00292226,-0.003
 07078,-0.00084365,0.00121417,0.00132686,0.00293579,0.00004467,0.593407
 45,0.00210514,-0.00008661,-0.00132590,-0.00359950,0.00433751,0.0026469
 9,0.00247180,-0.00308302,0.00151472,0.03138567,-0.00837359,0.00091102,
 0.01248137,-0.08075110,-0.00477952,-0.03618275,-0.01137890,0.01481626,
 -0.00700381,0.00354598,0.01020147,0.00058535,-0.00278463,-0.00462864,0
 .00138922,-0.00071489,-0.00198510,-0.07048748,0.63513257,-0.00181060,-
 0.00044724,0.00197937,0.00489733,-0.00004725,-0.00579861,-0.00395193,0
 .00321893,-0.00191807,-0.03953440,0.01136250,0.00471009,0.03375529,-0.
 01190543,-0.10626715,0.00854084,0.00446736,0.00169020,0.00019466,0.001
 35790,0.00703330,0.00332317,0.00244531,-0.00370078,0.00110814,0.001325
 63,-0.00204086,0.04042021,-0.03199003,0.75142383,-0.00194188,0.0005864
 6,0.00007500,0.00738732,-0.00252887,0.00159833,-0.00236165,0.00186529,
 -0.00177135,-0.00591191,0.00182154,0.00008329,-0.01972935,-0.04570597,
 -0.00932178,-0.01285351,-0.00567729,0.00291587,0.00427209,0.00999627,0
 .00176534,-0.00177981,-0.00317056,-0.00043898,-0.00165680,-0.00403384,
 0.00067768,-0.11117764,-0.05551195,-0.00963882,0.49947705,-0.00032830,
 0.00050237,-0.00039058,0.00145597,-0.00168321,0.00115612,-0.00065464,0
 .00101741,-0.00084000,-0.00085686,0.00173827,-0.00024552,-0.00399086,-
 0.00403322,0.00259792,0.00013761,0.00159956,-0.00124698,0.00405361,0.0
 0202529,-0.00376157,-0.00344070,-0.00128113,0.00184394,-0.00116740,-0.
 00148220,0.00129878,-0.01514989,-0.23715348,-0.05412785,0.11551493,0.4
 7421776,-0.00003125,-0.00031344,0.00055317,-0.00053615,0.00092062,-0.0
 0106008,0.00040698,-0.00067163,0.00070413,0.00092703,-0.00075199,0.000
 60503,0.00481811,0.01340047,0.00073444,0.00633355,0.00306523,-0.000472
 30,0.00019309,-0.00355351,-0.00567397,-0.00237221,-0.00094815,0.002772
 71,-0.00027636,0.00052475,0.00118255,0.00618842,-0.04192704,-0.0942846
 1,-0.09987869,0.10793065,0.16036705,0.00320338,-0.00059674,-0.00054039
 ,-0.01050972,0.00443900,-0.00168527,0.00303736,-0.00241295,0.00203293,
 0.00776130,-0.00196632,0.00111336,-0.01229358,-0.00015467,0.00267830,0
 .00702311,0.00562240,-0.00014853,-0.00530123,-0.01004800,0.00014894,0.
 00309031,0.00345076,-0.00043976,0.00219958,0.00455335,-0.00120129,-0.0
 4667715,-0.04178505,-0.00125993,-0.20250462,-0.01010640,0.03585760,0.7
 6332548,0.00108503,-0.00066557,0.00006272,-0.00402699,0.00349452,-0.00
 115677,0.00134345,-0.00188303,0.00125210,0.00418678,-0.00204239,0.0002
 2486,-0.00602149,-0.00769455,-0.00144402,-0.00128124,-0.00083617,0.000
 60414,-0.00294779,-0.00079693,0.00360215,0.00213808,0.00017065,-0.0020
 2140,0.00113946,0.00114322,-0.00113998,-0.05088318,0.01255376,0.023116
 46,0.01628566,-0.17741479,-0.04031279,0.10554228,1.28732353,-0.0004618
 9,0.00018259,-0.00027631,0.00214146,-0.00076071,0.00115319,-0.00067101
 ,0.00057085,-0.00077144,-0.00174999,0.00015745,-0.00066236,0.00227879,
 -0.00290382,-0.00238612,-0.00232901,-0.00193879,-0.00007652,0.00064520
 ,0.00303484,0.00201955,-0.00018685,-0.00109910,-0.00109328,-0.00018508
 ,-0.00093186,-0.00026663,-0.00548007,0.02040730,0.00464655,0.04494221,
 -0.03150344,-0.11207452,-0.10516067,0.32113889,0.49019103,-0.00104670,
 0.00028577,0.00015600,0.00362788,-0.00172248,0.00056138,-0.00114183,0.
 00101686,-0.00081631,-0.00303325,0.00120594,-0.00021168,0.00448452,-0.
 00445267,-0.00249140,-0.00336821,-0.00187134,0.00048502,0.00213577,0.0
 0365737,-0.00019028,-0.00115642,-0.00109813,0.00024908,-0.00083344,-0.
 00167138,0.00047874,-0.00233408,0.01297148,0.00746256,-0.08140220,-0.0
 9688190,0.00011016,-0.27079426,-0.21740384,-0.03142498,0.30039781,-0.0
 0087105,0.00044238,0.00000826,0.00322947,-0.00226228,0.00078040,-0.001
 09081,0.00130262,-0.00094202,-0.00309073,0.00162663,-0.00010581,0.0039
 6691,-0.00316734,-0.00195325,-0.00210099,-0.00066998,0.00040184,0.0022
 4152,0.00227640,-0.00140018,-0.00135934,-0.00061625,0.00087398,-0.0008
 4717,-0.00130160,0.00067339,-0.00015811,0.00541952,-0.00026368,-0.0610
 0011,-0.01429833,0.00540746,-0.24546760,-0.61535285,-0.10182599,0.3117
 8028,0.77112534,-0.00003275,-0.00002488,0.00013649,-0.00008439,0.00003
 584,-0.00030710,0.00003369,-0.00005537,0.00012921,0.00007833,0.0000686
 0,0.00018004,-0.00012154,0.00023952,0.00019029,0.00018779,0.00033425,0
 .00008570,0.00013243,-0.00033226,-0.00051016,-0.00006760,0.00020516,0.
 00029966,-0.00004670,0.00005038,0.00011587,0.00295301,-0.00462617,0.00
 355325,0.01360068,0.01748333,0.02820470,-0.04191253,-0.11112268,-0.150
 07179,0.03153635,0.16582246,0.09882937,-0.00092163,0.00013326,0.000140
 02,0.00310787,-0.00120135,0.00043415,-0.00089262,0.00067540,-0.0005895
 4,-0.00235765,0.00037817,-0.00038926,0.00456730,0.00268388,0.00040548,
 -0.00180826,-0.00216669,-0.00019860,0.00124073,0.00319683,0.00055020,-
 0.00070180,-0.00109087,-0.00018915,-0.00058271,-0.00137000,0.00020527,
 0.00059919,0.01341067,0.00319267,-0.06509790,0.05102369,0.05237152,-0.
 25655461,0.15010517,0.10151574,0.05770899,-0.00350699,-0.00622551,0.26
 944309,-0.00012067,0.00022831,-0.00000534,0.00049579,-0.00103304,0.000
 08105,-0.00028218,0.00057429,-0.00029188,-0.00120466,0.00103715,0.0001
 7572,0.00055270,0.00035159,-0.00029374,0.00068019,0.00109450,0.0000716
 8,0.00099033,-0.00063646,-0.00181697,-0.00074934,0.00031184,0.00096903
 ,-0.00032013,-0.00007283,0.00045339,-0.00608806,-0.01209910,-0.0012137
 9,0.04389462,0.01483200,-0.02187236,0.17487254,-0.49355265,-0.19785530
 ,-0.00378405,-0.14562970,-0.06947569,-0.20888410,0.62875193,0.00021915
 ,-0.00003247,0.00006651,-0.00091516,0.00023310,-0.00034606,0.00026607,
 -0.00016258,0.00026961,0.00091088,0.00013041,0.00032089,-0.00119309,-0
 .00104596,0.00062134,0.00081695,0.00107821,0.00024911,0.00002162,-0.00
 125779,-0.00141109,-0.00016992,0.00037566,0.00073033,-0.00002049,0.000
 29443,0.00027526,-0.00368158,-0.00768824,-0.00495212,0.04969683,-0.024
 21365,0.00755679,0.11083445,-0.18948131,-0.22998674,-0.00634813,-0.069
 55665,0.01940503,-0.15307115,0.28835479,0.20529982,-0.00583840,0.00024
 238,-0.00821952,0.00200031,-0.00754171,0.00492424,-0.00069589,0.002912
 28,-0.00237083,-0.00188398,-0.01068355,-0.03993616,-0.10551735,0.05538
 862,0.01718224,0.00372464,-0.02901909,-0.01900761,0.00039158,0.0045293
 4,0.00910107,0.00152524,-0.00099738,-0.00385034,-0.00162993,-0.0040249
 7,-0.00111649,0.00444854,0.01854123,0.02967622,-0.00383549,0.00081188,
 0.00341665,0.00290371,0.00312691,0.00042578,-0.00039428,-0.00077105,-0
 .00007202,-0.00186537,-0.00047636,0.00019817,0.24006005,-0.00051920,0.
 00111715,-0.00072641,-0.00012030,-0.00045834,0.00102877,-0.00026259,0.
 00077524,-0.00046808,0.00013065,0.01134022,0.01122478,0.05930510,-0.16
 836389,-0.06414274,-0.00790722,-0.06871308,-0.04679241,-0.00213898,0.0
 0953762,0.01503133,0.00146841,-0.00143299,-0.00504300,-0.00328222,-0.0
 0875359,-0.00116670,-0.00189451,-0.01056925,-0.01709755,-0.00402212,0.
 00163744,0.00270184,0.00174567,-0.00133797,-0.00063620,0.00010901,0.00
 087668,0.00024853,-0.00082854,0.00177216,0.00096318,-0.12320563,0.3744
 7222,-0.00888263,-0.00017189,0.00022173,0.02219777,-0.00884791,0.00176
 803,-0.00446896,0.00377280,-0.00194579,-0.02623709,-0.01691606,-0.0807
 5616,0.02654380,-0.07467383,-0.15696565,-0.00438529,-0.02515421,-0.003
 63658,0.00324261,0.01117618,0.00689690,-0.00075511,-0.00199771,-0.0000
 4834,-0.00305615,-0.00665961,0.00025047,-0.00518488,-0.01800605,-0.017
 98473,0.00571569,0.00000660,0.00016308,-0.00689536,-0.00491737,-0.0010
 6258,0.00258009,0.00286613,0.00071668,0.00296185,0.00134343,0.00004514
 ,0.10582119,0.12997025,0.53197093,0.00015482,-0.00051260,0.00252668,-0
 .00541924,0.00326223,-0.00609209,0.00136323,-0.00215954,0.00246418,0.0
 0619681,0.00456042,0.01511606,0.00746232,-0.04691754,-0.01591052,-0.00
 254137,0.01001821,0.00018484,0.00073103,-0.00595448,-0.00329487,-0.000
 92809,0.00161058,0.00196329,0.00110140,0.00394288,0.00018645,0.0084822
 5,0.00234140,0.00623713,-0.00177422,0.00051490,-0.00414978,-0.00230118
 ,-0.00082727,0.00349738,-0.00008007,0.00018209,-0.00072361,-0.00034063
 ,-0.00006780,-0.00060622,-0.12692206,0.05819783,-0.02891701,0.62730184
 ,0.00101306,-0.00099019,-0.00131619,-0.00237334,0.00197578,0.00201956,
 0.00072413,-0.00067662,-0.00001823,0.00291471,-0.00337076,-0.00862802,
 -0.03540541,0.03268366,-0.02241137,0.00381346,-0.00459305,0.00191068,-
 0.00151919,-0.00654837,-0.00339829,-0.00039700,0.00110766,0.00261486,0
 .00016180,0.00024652,0.00049544,-0.00222406,0.00467560,-0.00314091,-0.
 00233788,-0.00330472,0.00423005,0.00481821,0.00725868,-0.00123528,-0.0
 0188586,-0.00371258,-0.00061894,0.00014338,-0.00285692,-0.00029124,0.0
 5897891,-0.15877463,0.00126190,-0.41509964,1.05239084,0.00576273,-0.00
 129817,0.00308893,-0.01761008,0.00862428,-0.00862148,0.00451602,-0.004
 78445,0.00381995,0.01204352,-0.00154813,0.01274967,-0.01574983,-0.0338
 5751,-0.07199145,0.00328930,0.02038631,0.00913222,-0.00408696,-0.01803
 699,-0.00714685,0.00034477,0.00410174,0.00306392,0.00401673,0.00943056
 ,-0.00051908,0.01120578,0.00212189,0.00154928,-0.00939768,-0.00258960,
 0.00024008,0.01564749,0.00771880,0.00001601,-0.00521774,-0.00510428,-0
 .00097880,-0.00503858,-0.00062016,0.00080670,-0.02641364,-0.00602470,-
 0.14176319,-0.02672916,0.31525773,0.81916752,-0.00002192,0.00008265,-0
 .00158156,0.00172760,-0.00096710,0.00348150,-0.00030152,0.00069561,-0.
 00092709,-0.00036430,-0.00252277,-0.00415177,-0.00558117,0.01557398,0.
 01004676,-0.00170264,-0.00557335,-0.00437078,-0.00107501,0.00292746,0.
 00168144,0.00079423,-0.00067052,-0.00098698,-0.00028371,-0.00142909,-0
 .00014557,-0.00457805,0.00082113,-0.00127202,0.00015052,-0.00084090,0.
 00438065,0.00217300,0.00187237,-0.00206042,-0.00032512,-0.00075176,0.0
 0024803,0.00008766,-0.00049175,0.00027369,-0.02451987,0.04175112,-0.05
 084156,-0.34150117,0.27353220,-0.03675022,0.37193872,-0.00021170,0.000
 43790,0.00164716,-0.00009164,-0.00025743,-0.00305581,-0.00013062,-0.00
 017806,0.00051130,-0.00085519,0.00322179,0.00349891,0.00645053,-0.0204
 1974,-0.00479568,-0.00525374,0.00269680,-0.00497008,0.00071728,0.00246
 699,0.00213803,0.00026394,-0.00024838,-0.00125242,0.00011985,0.0005301
 0,-0.00039787,0.00288396,-0.00271699,0.00040261,0.00062711,0.00136731,
 -0.00058635,-0.00151927,-0.00299040,0.00068851,0.00067666,0.00145793,0
 .00016672,-0.00025944,0.00127051,0.00009370,0.04015824,0.00128189,0.04
 325484,0.28032235,-0.47410426,0.02138372,-0.40148600,0.58195721,-0.001
 31053,0.00024073,-0.00064432,0.00415957,-0.00188428,0.00199461,-0.0010
 4019,0.00105180,-0.00086017,-0.00241168,-0.00012785,-0.00150625,0.0028
 0021,0.00669836,0.00969099,-0.00392234,-0.00479618,-0.00411492,0.00135
 899,0.00516186,0.00068386,-0.00037127,-0.00109769,-0.00022147,-0.00100
 140,-0.00226208,0.00047904,0.00031968,-0.00374833,-0.00635168,0.002503
 23,0.00079592,-0.00196363,-0.00446324,-0.00208135,0.00013138,0.0014615
 5,0.00141757,0.00025428,0.00124727,0.00029466,-0.00011421,-0.05512958,
 0.04812725,-0.01339027,-0.02666010,0.00901012,-0.16353545,0.03932268,0
 .00798232,0.16092925,0.00032161,-0.00002799,-0.00061127,0.00010713,-0.
 00026747,0.00126249,-0.00007676,0.00030214,-0.00045031,-0.00044881,-0.
 00103886,-0.00208475,0.00088289,0.00864991,-0.00133412,0.00088793,-0.0
 0083910,0.00084449,-0.00035535,-0.00004129,-0.00013679,0.00008858,-0.0
 0007674,0.00006242,-0.00000771,-0.00029027,0.00001405,-0.00148167,-0.0
 0006533,-0.00127738,0.00024076,-0.00023102,0.00072192,0.00018066,0.000
 25591,-0.00064331,0.00001391,-0.00006830,0.00014812,0.00012218,-0.0001
 0017,0.00011842,0.02442158,-0.02150182,-0.03726294,-0.16602764,0.11129
 108,0.09493454,0.00040868,0.08058695,0.04369460,0.13967103,-0.00152475
 ,0.00044812,0.00062903,0.00486524,-0.00228814,-0.00021905,-0.00120183,
 0.00107198,-0.00050277,-0.00393541,0.00070612,-0.00324980,0.00438748,0
 .00452397,0.00601188,-0.00182575,-0.00075628,-0.00183152,0.00130362,0.
 00333942,0.00178269,-0.00014802,-0.00063387,-0.00071151,-0.00058044,-0
 .00103111,-0.00008131,-0.00042837,-0.00274065,0.00057545,0.00198966,0.
 00168442,-0.00131229,-0.00346552,-0.00402182,0.00036057,0.00133819,0.0
 0213542,0.00039406,0.00046922,0.00135596,0.00005914,-0.00826792,0.0156
 3743,-0.03470548,0.10316377,-0.43603017,-0.31550066,0.08049223,-0.0993
 0348,-0.06775695,-0.17578951,0.51377404,-0.00285793,0.00045627,0.00049
 379,0.00986890,-0.00378096,0.00116580,-0.00234586,0.00194302,-0.001196
 24,-0.00691365,-0.00000941,-0.00973286,-0.00510201,0.01860721,0.012831
 02,-0.00196847,-0.00655123,-0.00403429,0.00188034,0.00667405,0.0031978
 7,-0.00016222,-0.00143026,-0.00108986,-0.00151626,-0.00323796,0.000052
 84,-0.00320687,-0.00258748,-0.00020233,0.00312371,0.00159182,-0.000740
 48,-0.00492205,-0.00369474,0.00034218,0.00186329,0.00223050,0.00038218
 ,0.00123876,0.00098376,-0.00011202,-0.01444479,-0.06778378,-0.12298069
 ,0.07958595,-0.29437955,-0.45964481,0.04274529,-0.06564021,0.02470828,
 -0.09767361,0.41559240,0.55640761,-0.00106754,-0.00026219,0.00091013,0
 .00309140,-0.00073239,-0.00152987,-0.00131886,0.00103267,-0.00056452,-
 0.00907408,0.00241946,0.00115540,-0.01108376,0.02278570,-0.02062935,0.
 00270649,-0.00004090,0.00022440,-0.00204917,-0.00100329,-0.00006135,0.
 00040612,-0.00007201,-0.00024288,0.00017800,0.00030261,-0.00021971,-0.
 13335017,0.11164908,-0.07503282,0.00662690,-0.02648381,0.01182109,0.00
 654773,-0.00133894,-0.00056153,-0.00155616,-0.00036502,-0.00061544,-0.
 00283987,-0.00015058,0.00145703,0.00026586,-0.00005055,0.00307272,-0.0
 0308025,0.00315019,-0.00104435,0.00184901,-0.00202582,-0.00081739,0.00
 061136,-0.00089617,-0.00000777,0.14003306,-0.00020508,0.00005152,-0.00
 001852,-0.00012466,-0.00022075,0.00030850,-0.00017559,0.00024102,-0.00
 019091,-0.00059275,0.00046625,-0.00042615,0.00266242,-0.00085241,0.001
 84065,-0.00161673,0.00017874,-0.00064192,-0.00010310,0.00157152,0.0000
 2541,-0.00042099,-0.00018638,-0.00031677,-0.00013988,-0.00058324,0.000
 15577,0.10444892,-0.22392413,0.11619201,0.00226414,-0.03890607,0.01303
 566,0.00756109,-0.00327968,-0.00194676,-0.00147098,0.00074352,0.000088
 67,-0.00153849,0.00312815,0.00069376,-0.00021065,0.00012264,-0.0006998
 3,0.00203083,-0.00307748,0.00016202,-0.00180617,0.00211130,0.00133897,
 -0.00043684,0.00123982,0.00059695,-0.10695843,0.25162167,-0.00006469,-
 0.00002431,-0.00014126,-0.00008769,0.00014860,0.00112910,0.00043319,-0
 .00042481,0.00015117,0.00278968,-0.00051619,-0.00054261,0.00676887,-0.
 01022548,0.00848690,-0.00161057,-0.00107515,0.00016819,-0.00109136,0.0
 0017576,0.00220158,0.00134340,-0.00014321,-0.00063141,0.00017458,0.000
 25905,-0.00046172,-0.07954763,0.12485155,-0.15328872,0.00606203,-0.010
 64904,0.00861630,-0.00046787,0.00282261,0.00151872,-0.00021667,-0.0007
 8249,-0.00072097,-0.00025714,-0.00154300,-0.00016430,-0.00074259,0.000
 12962,-0.00171995,0.00194273,-0.00210167,0.00034436,0.00033472,-0.0005
 8505,-0.00535551,-0.00043374,0.00078127,0.00033617,0.08129473,-0.12679
 005,0.15241682,0.00075069,0.00017152,-0.00069389,-0.00127589,0.0000488
 2,0.00062475,0.00038720,-0.00010276,-0.00000805,0.00099273,-0.00059811
 ,0.00116297,0.00597137,0.00832949,0.03492111,-0.00222992,-0.00291598,-
 0.00151810,-0.00158703,0.00085112,0.00361343,-0.00155215,-0.00243629,-
 0.00190250,0.00043017,0.00001566,-0.00085693,-0.06335472,0.00448233,-0
 .00503033,-0.00612764,-0.01337988,-0.02030232,0.00549073,-0.00235035,-
 0.00453176,-0.00090286,0.00004876,0.00098368,-0.00291397,0.00123368,0.
 00119250,-0.00663888,0.00302588,0.00475127,-0.00187777,0.00070126,-0.0
 0372264,0.00112509,-0.00097346,0.00025994,0.00043964,0.00005429,0.0008
 1526,0.00310394,-0.00316706,-0.01662398,0.06976927,-0.00052671,-0.0001
 1112,0.00030883,0.00110032,-0.00004100,-0.00014539,-0.00037012,0.00015
 595,-0.00008149,-0.00067957,0.00026039,-0.00078284,0.00413545,-0.00015
 734,-0.00552237,0.00010749,-0.00088864,-0.00074739,-0.00087997,0.00049
 422,0.00219883,-0.00243294,-0.00371357,-0.00109559,0.00039286,0.000454
 10,-0.00068188,0.00088438,-0.06928862,-0.04423045,-0.01085708,-0.02106
 470,-0.03896720,0.00491723,-0.00007558,-0.00390376,-0.00079892,-0.0003
 9553,0.00111850,-0.00137320,0.00117231,0.00145353,0.00050853,-0.000166
 96,-0.00090219,0.00139140,-0.00229899,0.00017761,-0.00120934,0.0014190
 0,0.00163514,-0.00031127,0.00088882,0.00041961,-0.00095961,0.00955398,
 0.02569199,0.00696109,0.08380328,-0.00072244,-0.00002646,0.00029268,0.
 00132813,-0.00041319,0.00080100,-0.00033375,0.00025393,-0.00036609,-0.
 00311411,0.00157908,0.00030649,-0.00056749,-0.00119492,-0.00875982,0.0
 0149428,0.00091039,0.00036504,0.00117886,-0.00017801,-0.00340729,-0.00
 366280,-0.00275853,0.00193025,-0.00042642,-0.00044438,0.00089380,-0.00
 418863,-0.05417870,-0.37979619,-0.00231258,-0.00513687,0.00456956,0.00
 078380,-0.00317032,-0.00129034,-0.00002703,0.00145236,0.00010608,0.001
 69602,0.00226069,0.00144001,0.00055801,0.00045603,0.00022097,-0.000621
 34,0.00073935,0.00022247,0.00057322,-0.00048436,-0.00081381,0.00010717
 ,-0.00031515,-0.00018418,0.00139151,-0.00340745,-0.01234287,0.00686559
 ,0.06405652,0.39581224||-0.00000704,-0.00001986,0.00001202,0.00000962,
 0.00005541,-0.00001438,0.00000029,-0.00002214,0.00000894,0.00001288,-0
 .00000963,0.00002452,-0.00002436,-0.00001788,-0.00003434,0.00001318,0.
 00000015,-0.00000750,-0.00002462,0.00002288,0.00000907,0.00001414,-0.0
 0000468,-0.00000709,0.00000501,-0.00001255,0.00000441,0.00000808,0.000
 01336,0.00000726,0.00000087,-0.00000746,-0.00001245,0.00000608,-0.0000
 0048,0.00002141,0.00000182,0.00000432,-0.00000712,-0.00000418,-0.00000
 122,-0.00000815,-0.00000412,-0.00000898,0.00001513,-0.00001353,0.00002
 415,-0.00004496,0.00000958,-0.00001870,0.00000970,-0.00000175,0.000006
 44,0.00002099,-0.00000193,-0.00000208,0.00000457,-0.00000002,-0.000001
 07,-0.00000203|||@
 The archive entry for this job was punched.


 A SLIP OF THE FOOT YOU MAY SOON RECOVER, BUT A SLIP OF THE TONGUE
 YOU MAY NEVER GET OVER. -- BEN FRANKLIN
 Job cpu time:       0 days  0 hours  1 minutes 11.0 seconds.
 Elapsed time:       0 days  0 hours  1 minutes 10.0 seconds.
 File lengths (MBytes):  RWF=    195 Int=      0 D2E=      0 Chk=      7 Scr=      1
 Normal termination of Gaussian 16 at Tue Jun 11 19:02:52 2024.
