 Entering Link 1 = C:\G16W\l1.exe PID=     13496.
  
 Copyright (c) 1988-2019, Gaussian, Inc.  All Rights Reserved.
  
 This is part of the Gaussian(R) 16 program.  It is based on
 the Gaussian(R) 09 system (copyright 2009, Gaussian, Inc.),
 the Gaussian(R) 03 system (copyright 2003, Gaussian, Inc.),
 the Gaussian(R) 98 system (copyright 1998, Gaussian, Inc.),
 the Gaussian(R) 94 system (copyright 1995, Gaussian, Inc.),
 the Gaussian 92(TM) system (copyright 1992, Gaussian, Inc.),
 the Gaussian 90(TM) system (copyright 1990, Gaussian, Inc.),
 the Gaussian 88(TM) system (copyright 1988, Gaussian, Inc.),
 the Gaussian 86(TM) system (copyright 1986, Carnegie Mellon
 University), and the Gaussian 82(TM) system (copyright 1983,
 Carnegie Mellon University). Gaussian is a federally registered
 trademark of Gaussian, Inc.
  
 This software contains proprietary and confidential information,
 including trade secrets, belonging to Gaussian, Inc.
  
 This software is provided under written license and may be
 used, copied, transmitted, or stored only in accord with that
 written license.
  
 The following legend is applicable only to US Government
 contracts under FAR:
  
                    RESTRICTED RIGHTS LEGEND
  
 Use, reproduction and disclosure by the US Government is
 subject to restrictions as set forth in subparagraphs (a)
 and (c) of the Commercial Computer Software - Restricted
 Rights clause in FAR 52.227-19.
  
 Gaussian, Inc.
 340 Quinnipiac St., Bldg. 40, Wallingford CT 06492
  
  
 ---------------------------------------------------------------
 Warning -- This program may not be used in any manner that
 competes with the business of Gaussian, Inc. or will provide
 assistance to any competitor of Gaussian, Inc.  The licensee
 of this program is prohibited from giving any competitor of
 Gaussian, Inc. access to this program.  By using this program,
 the user acknowledges that Gaussian, Inc. is engaged in the
 business of creating and licensing software in the field of
 computational chemistry and represents and warrants to the
 licensee that it is not a competitor of Gaussian, Inc. and that
 it will not use this program in any manner prohibited above.
 ---------------------------------------------------------------
  

 Cite this work as:
 Gaussian 16, Revision C.01,
 M. J. Frisch, G. W. Trucks, H. B. Schlegel, G. E. Scuseria, 
 M. A. Robb, J. R. Cheeseman, G. Scalmani, V. Barone, 
 G. A. Petersson, H. Nakatsuji, X. Li, M. Caricato, A. V. Marenich, 
 J. Bloino, B. G. Janesko, R. Gomperts, B. Mennucci, H. P. Hratchian, 
 J. V. Ortiz, A. F. Izmaylov, J. L. Sonnenberg, D. Williams-Young, 
 F. Ding, F. Lipparini, F. Egidi, J. Goings, B. Peng, A. Petrone, 
 T. Henderson, D. Ranasinghe, V. G. Zakrzewski, J. Gao, N. Rega, 
 G. Zheng, W. Liang, M. Hada, M. Ehara, K. Toyota, R. Fukuda, 
 J. Hasegawa, M. Ishida, T. Nakajima, Y. Honda, O. Kitao, H. Nakai, 
 T. Vreven, K. Throssell, J. A. Montgomery, Jr., J. E. Peralta, 
 F. Ogliaro, M. J. Bearpark, J. J. Heyd, E. N. Brothers, K. N. Kudin, 
 V. N. Staroverov, T. A. Keith, R. Kobayashi, J. Normand, 
 K. Raghavachari, A. P. Rendell, J. C. Burant, S. S. Iyengar, 
 J. Tomasi, M. Cossi, J. M. Millam, M. Klene, C. Adamo, R. Cammi, 
 J. W. Ochterski, R. L. Martin, K. Morokuma, O. Farkas, 
 J. B. Foresman, and D. J. Fox, Gaussian, Inc., Wallingford CT, 2019.
 
 ******************************************
 Gaussian 16:  EM64W-G16RevC.01 30-May-2019
                11-Jun-2024 
 ******************************************
 %nprocshared=24
 Will use up to   24 processors via shared memory.
 %mem=120GB
 ----------------------
 # HF/6-31G(d) Opt Freq
 ----------------------
 1/18=20,19=15,38=1/1,3;
 2/9=110,12=2,17=6,18=5,40=1/2;
 3/5=1,6=6,7=1,11=9,25=1,30=1,71=1/1,2,3;
 4//1;
 5/5=2,38=5/2;
 6/7=2,8=2,9=2,10=2,28=1/1;
 7//1,2,3,16;
 1/18=20,19=15/3(2);
 2/9=110/2;
 99//99;
 2/9=110/2;
 3/5=1,6=6,7=1,11=9,25=1,30=1,71=1/1,2,3;
 4/5=5,16=3,69=1/1;
 5/5=2,38=5/2;
 7//1,2,3,16;
 1/18=20,19=15/3(-5);
 2/9=110/2;
 6/7=2,8=2,9=2,10=2,19=2,28=1/1;
 99/9=1/99;
 ----------------------------------------------------------------------
 O=[N+1]([O-1])OC(CO[N+1]([O-1])=O)O[N+1]([O-1])=O geometry optimizatio
 n
 ----------------------------------------------------------------------
 Symbolic Z-matrix:
 Charge =  0 Multiplicity = 1
 O                    -1.38426  -1.97188  -0.12321 
 N                    -1.22353  -1.61955   1.04373 
 O                    -1.42092  -2.23335   2.08873 
 O                    -0.69593  -0.32896   1.26751 
 C                    -0.47733   0.41869   0.07277 
 C                     1.0105    0.2951   -0.30771 
 O                     1.29987  -1.0325   -0.73395 
 N                     2.65338  -1.1974   -1.11597 
 O                     2.90948  -2.34107  -1.48122 
 O                     3.37996  -0.20663  -1.03565 
 O                    -0.68249   1.81692   0.31776 
 N                    -2.0487    2.1507    0.42157 
 O                    -2.85937   1.23082   0.32155 
 O                    -2.22993   3.35181   0.5989 
 H                    -1.08314   0.11142  -0.79039 
 H                     1.62348   0.54667   0.56821 
 H                     1.22894   1.00921  -1.11264 
 

 GradGradGradGradGradGradGradGradGradGradGradGradGradGradGradGradGradGrad
 Berny optimization.
 Initialization pass.
                           ----------------------------
                           !    Initial Parameters    !
                           ! (Angstroms and Degrees)  !
 --------------------------                            --------------------------
 ! Name  Definition              Value          Derivative Info.                !
 --------------------------------------------------------------------------------
 ! R1    R(1,2)                  1.2295         estimate D2E/DX2                !
 ! R2    R(2,3)                  1.2279         estimate D2E/DX2                !
 ! R3    R(2,4)                  1.4121         estimate D2E/DX2                !
 ! R4    R(4,5)                  1.4262         estimate D2E/DX2                !
 ! R5    R(5,6)                  1.5407         estimate D2E/DX2                !
 ! R6    R(5,11)                 1.4343         estimate D2E/DX2                !
 ! R7    R(5,15)                 1.0984         estimate D2E/DX2                !
 ! R8    R(6,7)                  1.4241         estimate D2E/DX2                !
 ! R9    R(6,16)                 1.0983         estimate D2E/DX2                !
 ! R10   R(6,17)                 1.098          estimate D2E/DX2                !
 ! R11   R(7,8)                  1.416          estimate D2E/DX2                !
 ! R12   R(8,9)                  1.2276         estimate D2E/DX2                !
 ! R13   R(8,10)                 1.2313         estimate D2E/DX2                !
 ! R14   R(11,12)                1.4102         estimate D2E/DX2                !
 ! R15   R(12,13)                1.2302         estimate D2E/DX2                !
 ! R16   R(12,14)                1.2276         estimate D2E/DX2                !
 ! A1    A(1,2,3)              130.051          estimate D2E/DX2                !
 ! A2    A(1,2,4)              117.4608         estimate D2E/DX2                !
 ! A3    A(3,2,4)              112.4615         estimate D2E/DX2                !
 ! A4    A(2,4,5)              113.8049         estimate D2E/DX2                !
 ! A5    A(4,5,6)              108.23           estimate D2E/DX2                !
 ! A6    A(4,5,11)             110.2449         estimate D2E/DX2                !
 ! A7    A(4,5,15)             115.2836         estimate D2E/DX2                !
 ! A8    A(6,5,11)             104.982          estimate D2E/DX2                !
 ! A9    A(6,5,15)             108.4277         estimate D2E/DX2                !
 ! A10   A(11,5,15)            109.1509         estimate D2E/DX2                !
 ! A11   A(5,6,7)              110.1776         estimate D2E/DX2                !
 ! A12   A(5,6,16)             108.8833         estimate D2E/DX2                !
 ! A13   A(5,6,17)             108.7232         estimate D2E/DX2                !
 ! A14   A(7,6,16)             109.8061         estimate D2E/DX2                !
 ! A15   A(7,6,17)             110.2718         estimate D2E/DX2                !
 ! A16   A(16,6,17)            108.9448         estimate D2E/DX2                !
 ! A17   A(6,7,8)              112.5532         estimate D2E/DX2                !
 ! A18   A(7,8,9)              112.8406         estimate D2E/DX2                !
 ! A19   A(7,8,10)             116.9205         estimate D2E/DX2                !
 ! A20   A(9,8,10)             130.2388         estimate D2E/DX2                !
 ! A21   A(5,11,12)            112.4505         estimate D2E/DX2                !
 ! A22   A(11,12,13)           117.0934         estimate D2E/DX2                !
 ! A23   A(11,12,14)           112.6587         estimate D2E/DX2                !
 ! A24   A(13,12,14)           130.2476         estimate D2E/DX2                !
 ! D1    D(1,2,3,4)            178.0403         estimate D2E/DX2                !
 ! D2    D(1,2,4,5)              2.7279         estimate D2E/DX2                !
 ! D3    D(3,2,4,5)           -178.9625         estimate D2E/DX2                !
 ! D4    D(2,4,5,6)            -98.0763         estimate D2E/DX2                !
 ! D5    D(2,4,5,11)           147.62           estimate D2E/DX2                !
 ! D6    D(2,4,5,15)            23.5009         estimate D2E/DX2                !
 ! D7    D(4,5,6,7)             69.3265         estimate D2E/DX2                !
 ! D8    D(4,5,6,16)           -51.1527         estimate D2E/DX2                !
 ! D9    D(4,5,6,17)          -169.7224         estimate D2E/DX2                !
 ! D10   D(11,5,6,7)          -172.9451         estimate D2E/DX2                !
 ! D11   D(11,5,6,16)           66.5758         estimate D2E/DX2                !
 ! D12   D(11,5,6,17)          -51.994          estimate D2E/DX2                !
 ! D13   D(15,5,6,7)           -56.3858         estimate D2E/DX2                !
 ! D14   D(15,5,6,16)         -176.8649         estimate D2E/DX2                !
 ! D15   D(15,5,6,17)           64.5653         estimate D2E/DX2                !
 ! D16   D(4,5,11,12)          -75.4237         estimate D2E/DX2                !
 ! D17   D(6,5,11,12)          168.2256         estimate D2E/DX2                !
 ! D18   D(15,5,11,12)          52.1639         estimate D2E/DX2                !
 ! D19   D(5,6,7,8)            179.1042         estimate D2E/DX2                !
 ! D20   D(16,6,7,8)           -60.9733         estimate D2E/DX2                !
 ! D21   D(17,6,7,8)            59.0845         estimate D2E/DX2                !
 ! D22   D(6,7,8,9)            179.8271         estimate D2E/DX2                !
 ! D23   D(6,7,8,10)            -0.1164         estimate D2E/DX2                !
 ! D24   D(7,8,9,10)          -179.9339         estimate D2E/DX2                !
 ! D25   D(5,11,12,13)           1.4747         estimate D2E/DX2                !
 ! D26   D(5,11,12,14)        -178.3407         estimate D2E/DX2                !
 ! D27   D(11,12,13,14)       -179.7768         estimate D2E/DX2                !
 --------------------------------------------------------------------------------
 Trust Radius=3.00D-01 FncErr=1.00D-07 GrdErr=1.00D-07 EigMax=2.50D+02 EigMin=1.00D-04
 Number of steps in this run=     77 maximum allowed number of steps=    102.
 GradGradGradGradGradGradGradGradGradGradGradGradGradGradGradGradGradGrad

                          Input orientation:                          
 ---------------------------------------------------------------------
 Center     Atomic      Atomic             Coordinates (Angstroms)
 Number     Number       Type             X           Y           Z
 ---------------------------------------------------------------------
      1          8           0       -1.384259   -1.971882   -0.123209
      2          7           0       -1.223525   -1.619554    1.043734
      3          8           0       -1.420920   -2.233354    2.088729
      4          8           0       -0.695934   -0.328963    1.267506
      5          6           0       -0.477335    0.418694    0.072771
      6          6           0        1.010500    0.295103   -0.307712
      7          8           0        1.299866   -1.032497   -0.733948
      8          7           0        2.653379   -1.197396   -1.115966
      9          8           0        2.909476   -2.341072   -1.481220
     10          8           0        3.379955   -0.206625   -1.035652
     11          8           0       -0.682489    1.816922    0.317757
     12          7           0       -2.048701    2.150702    0.421575
     13          8           0       -2.859372    1.230816    0.321554
     14          8           0       -2.229929    3.351806    0.598901
     15          1           0       -1.083138    0.111418   -0.790388
     16          1           0        1.623481    0.546673    0.568214
     17          1           0        1.228943    1.009209   -1.112645
 ---------------------------------------------------------------------
                    Distance matrix (angstroms):
                    1          2          3          4          5
     1  O    0.000000
     2  N    1.229523   0.000000
     3  O    2.227639   1.227895   0.000000
     4  O    2.259881   1.412109   2.196978   0.000000
     5  C    2.564328   2.377820   3.462340   1.426243   0.000000
     6  C    3.302747   3.237776   4.248274   2.404723   1.540680
     7  O    2.908604   3.142021   4.100272   2.912730   2.432118
     8  N    4.229411   4.457904   5.286131   4.201549   3.718362
     9  O    4.518480   4.896701   5.613240   4.960147   4.636991
    10  O    5.162017   5.245212   6.076000   4.683201   4.061812
    11  O    3.878398   3.553749   4.481780   2.346706   1.434276
    12  N    4.211173   3.909326   4.732173   2.948614   2.364468
    13  O    3.554018   3.364840   4.146387   2.829877   2.528940
    14  O    5.438589   5.091674   5.836788   4.043295   3.457100
    15  H    2.208154   2.525862   3.728454   2.139812   1.098390
    16  H    3.983426   3.608892   4.394188   2.575933   2.162237
    17  H    4.085916   4.192251   5.271127   3.340805   2.159931
                    6          7          8          9         10
     6  C    0.000000
     7  O    1.424055   0.000000
     8  N    2.362177   1.416025   0.000000
     9  O    3.454367   2.204910   1.227596   0.000000
    10  O    2.529020   2.258287   1.231256   2.230638   0.000000
    11  O    2.360796   3.626983   4.719077   5.781647   4.736023
    12  N    3.651551   4.762446   5.973554   6.955587   6.095147
    13  O    4.030812   4.851385   6.192988   7.020540   6.545032
    14  O    4.545961   5.784294   6.890769   7.946650   6.841418
    15  H    2.156394   2.643943   3.972474   4.736341   4.481128
    16  H    1.098307   2.072228   2.634185   3.767364   2.495004
    17  H    1.097989   2.077740   2.626430   3.766221   2.472050
                   11         12         13         14         15
    11  O    0.000000
    12  N    1.410221   0.000000
    13  O    2.254408   1.230196   0.000000
    14  O    2.197608   1.227574   2.229735   0.000000
    15  H    2.072980   2.561220   2.375810   3.707474   0.000000
    16  H    2.644572   4.009905   4.541461   4.766391   3.059580
    17  H    2.520322   3.794706   4.338244   4.514526   2.501119
                   16         17
    16  H    0.000000
    17  H    1.787424   0.000000
 Stoichiometry    C2H3N3O9
 Framework group  C1[X(C2H3N3O9)]
 Deg. of freedom    45
 Full point group                 C1      NOp   1
 Largest Abelian subgroup         C1      NOp   1
 Largest concise Abelian subgroup C1      NOp   1
                         Standard orientation:                         
 ---------------------------------------------------------------------
 Center     Atomic      Atomic             Coordinates (Angstroms)
 Number     Number       Type             X           Y           Z
 ---------------------------------------------------------------------
      1          8           0        0.001610    2.010685    1.024947
      2          7           0       -0.391330    2.055558   -0.139231
      3          8           0       -0.538075    3.018344   -0.887053
      4          8           0       -0.698358    0.830319   -0.770559
      5          6           0       -0.559993   -0.306114    0.080056
      6          6           0        0.812686   -0.949515   -0.194687
      7          8           0        1.855622   -0.101257    0.275073
      8          7           0        3.141938   -0.654978    0.065522
      9          8           0        4.045315    0.073621    0.465578
     10          8           0        3.191801   -1.760325   -0.474582
     11          8           0       -1.518737   -1.311861   -0.275513
     12          7           0       -2.821346   -0.992113    0.160023
     13          8           0       -2.969774    0.081460    0.742082
     14          8           0       -3.639286   -1.865575   -0.113797
     15          1           0       -0.637260   -0.098965    1.155964
     16          1           0        0.920777   -1.108315   -1.276065
     17          1           0        0.854550   -1.921511    0.314285
 ---------------------------------------------------------------------
 Rotational constants (GHZ):           0.9869801           0.4179274           0.3162779
 Standard basis: 6-31G(d) (6D, 7F)
 There are   216 symmetry adapted cartesian basis functions of A   symmetry.
 There are   216 symmetry adapted basis functions of A   symmetry.
   216 basis functions,   404 primitive gaussians,   216 cartesian basis functions
    54 alpha electrons       54 beta electrons
       nuclear repulsion energy       980.5107595808 Hartrees.
 NAtoms=   17 NActive=   17 NUniq=   17 SFac= 1.00D+00 NAtFMM=   60 NAOKFM=F Big=F
 Integral buffers will be    131072 words long.
 Raffenetti 1 integral format.
 Two-electron integral symmetry is turned on.
 One-electron integrals computed using PRISM.
 NBasis=   216 RedAO= T EigKep=  2.31D-03  NBF=   216
 NBsUse=   216 1.00D-06 EigRej= -1.00D+00 NBFU=   216
 ExpMin= 1.61D-01 ExpMax= 5.48D+03 ExpMxC= 8.25D+02 IAcc=3 IRadAn=         5 AccDes= 0.00D+00
 Harris functional with IExCor=  205 and IRadAn=       5 diagonalized for initial guess.
 HarFok:  IExCor=  205 AccDes= 0.00D+00 IRadAn=         5 IDoV= 1 UseB2=F ITyADJ=14
 ICtDFT=  3500011 ScaDFX=  1.000000  1.000000  1.000000  1.000000
 FoFCou: FMM=F IPFlag=           0 FMFlag=      100000 FMFlg1=           0
         NFxFlg=           0 DoJE=T BraDBF=F KetDBF=T FulRan=T
         wScrn=  0.000000 ICntrl=       500 IOpCl=  0 I1Cent=   200000004 NGrid=           0
         NMat0=    1 NMatS0=      1 NMatT0=    0 NMatD0=    1 NMtDS0=    0 NMtDT0=    0
 Petite list used in FoFCou.
 Requested convergence on RMS density matrix=1.00D-08 within 128 cycles.
 Requested convergence on MAX density matrix=1.00D-06.
 Requested convergence on             energy=1.00D-06.
 No special actions if energy rises.
 Integral accuracy reduced to 1.0D-05 until final iterations.
 Initial convergence to 1.0D-05 achieved.  Increase integral accuracy.
 SCF Done:  E(RHF) =  -914.011449789     A.U. after   17 cycles
            NFock= 17  Conv=0.67D-08     -V/T= 2.0045

 **********************************************************************

            Population analysis using the SCF Density.

 **********************************************************************

 Orbital symmetries:
       Occupied  (A) (A) (A) (A) (A) (A) (A) (A) (A) (A) (A) (A)
                 (A) (A) (A) (A) (A) (A) (A) (A) (A) (A) (A) (A)
                 (A) (A) (A) (A) (A) (A) (A) (A) (A) (A) (A) (A)
                 (A) (A) (A) (A) (A) (A) (A) (A) (A) (A) (A) (A)
                 (A) (A) (A) (A) (A) (A)
       Virtual   (A) (A) (A) (A) (A) (A) (A) (A) (A) (A) (A) (A)
                 (A) (A) (A) (A) (A) (A) (A) (A) (A) (A) (A) (A)
                 (A) (A) (A) (A) (A) (A) (A) (A) (A) (A) (A) (A)
                 (A) (A) (A) (A) (A) (A) (A) (A) (A) (A) (A) (A)
                 (A) (A) (A) (A) (A) (A) (A) (A) (A) (A) (A) (A)
                 (A) (A) (A) (A) (A) (A) (A) (A) (A) (A) (A) (A)
                 (A) (A) (A) (A) (A) (A) (A) (A) (A) (A) (A) (A)
                 (A) (A) (A) (A) (A) (A) (A) (A) (A) (A) (A) (A)
                 (A) (A) (A) (A) (A) (A) (A) (A) (A) (A) (A) (A)
                 (A) (A) (A) (A) (A) (A) (A) (A) (A) (A) (A) (A)
                 (A) (A) (A) (A) (A) (A) (A) (A) (A) (A) (A) (A)
                 (A) (A) (A) (A) (A) (A) (A) (A) (A) (A) (A) (A)
                 (A) (A) (A) (A) (A) (A) (A) (A) (A) (A) (A) (A)
                 (A) (A) (A) (A) (A) (A)
 The electronic state is 1-A.
 Alpha  occ. eigenvalues --  -20.74253 -20.72993 -20.71944 -20.68425 -20.68290
 Alpha  occ. eigenvalues --  -20.67629 -20.67458 -20.67277 -20.67051 -15.97791
 Alpha  occ. eigenvalues --  -15.97194 -15.96542 -11.44909 -11.36868  -1.69883
 Alpha  occ. eigenvalues --   -1.68754  -1.68136  -1.51238  -1.47394  -1.46961
 Alpha  occ. eigenvalues --   -1.46540  -1.46098  -1.45701  -1.13192  -1.02436
 Alpha  occ. eigenvalues --   -0.98200  -0.92555  -0.89859  -0.85901  -0.84724
 Alpha  occ. eigenvalues --   -0.83197  -0.81548  -0.80376  -0.80282  -0.79584
 Alpha  occ. eigenvalues --   -0.78733  -0.77748  -0.71973  -0.70148  -0.68830
 Alpha  occ. eigenvalues --   -0.65811  -0.63473  -0.60436  -0.58115  -0.56853
 Alpha  occ. eigenvalues --   -0.56311  -0.55848  -0.55241  -0.54920  -0.54347
 Alpha  occ. eigenvalues --   -0.53279  -0.51266  -0.50514  -0.50227
 Alpha virt. eigenvalues --    0.04967   0.05815   0.06239   0.15596   0.19052
 Alpha virt. eigenvalues --    0.21653   0.25171   0.25897   0.26436   0.29153
 Alpha virt. eigenvalues --    0.33390   0.36651   0.39559   0.43060   0.44000
 Alpha virt. eigenvalues --    0.45187   0.54634   0.55632   0.58095   0.69055
 Alpha virt. eigenvalues --    0.69700   0.72306   0.73667   0.75521   0.77652
 Alpha virt. eigenvalues --    0.79386   0.80900   0.81909   0.83370   0.84126
 Alpha virt. eigenvalues --    0.86089   0.88459   0.89776   0.91320   0.92045
 Alpha virt. eigenvalues --    0.95741   1.00057   1.01664   1.03833   1.03903
 Alpha virt. eigenvalues --    1.04852   1.05069   1.05582   1.07825   1.09441
 Alpha virt. eigenvalues --    1.11468   1.13388   1.14347   1.15993   1.16927
 Alpha virt. eigenvalues --    1.17355   1.17897   1.19388   1.20682   1.21711
 Alpha virt. eigenvalues --    1.22029   1.23316   1.23761   1.26025   1.26803
 Alpha virt. eigenvalues --    1.28816   1.30611   1.32440   1.34821   1.38026
 Alpha virt. eigenvalues --    1.41650   1.42759   1.44780   1.51789   1.54337
 Alpha virt. eigenvalues --    1.55626   1.56512   1.60627   1.62296   1.62877
 Alpha virt. eigenvalues --    1.66241   1.67966   1.68627   1.70226   1.72892
 Alpha virt. eigenvalues --    1.73827   1.82384   1.84693   1.90288   1.92247
 Alpha virt. eigenvalues --    1.94848   1.97193   1.98137   2.00955   2.02148
 Alpha virt. eigenvalues --    2.02467   2.02985   2.03722   2.04105   2.04532
 Alpha virt. eigenvalues --    2.05282   2.05700   2.08536   2.09768   2.12914
 Alpha virt. eigenvalues --    2.16093   2.19461   2.22343   2.23694   2.24734
 Alpha virt. eigenvalues --    2.25822   2.26636   2.28439   2.30992   2.32429
 Alpha virt. eigenvalues --    2.33490   2.36497   2.37636   2.38419   2.40636
 Alpha virt. eigenvalues --    2.42056   2.46223   2.47833   2.49392   2.55359
 Alpha virt. eigenvalues --    2.59862   2.62664   2.71046   2.76359   2.78296
 Alpha virt. eigenvalues --    2.82586   2.89831   2.96298   2.97937   2.99076
 Alpha virt. eigenvalues --    2.99589   3.01314   3.01997   3.03143   3.09304
 Alpha virt. eigenvalues --    3.10130   3.14799   3.15421   3.15676   3.16436
 Alpha virt. eigenvalues --    3.16716   3.17393   3.31310   3.33756   3.36693
 Alpha virt. eigenvalues --    3.37487   3.39248   3.42650   3.92576   3.95848
 Alpha virt. eigenvalues --    4.01514   4.13575   4.17058   4.17373   4.18928
 Alpha virt. eigenvalues --    4.24471   4.30820   4.37051   4.42657   4.54270
 Alpha virt. eigenvalues --    4.67489   4.91369
          Condensed to atoms (all electrons):
               1          2          3          4          5          6
     1  O    8.256737   0.321855  -0.075458  -0.086568  -0.002351  -0.000313
     2  N    0.321855   5.223114   0.376259   0.190132  -0.027596  -0.000892
     3  O   -0.075458   0.376259   8.166012  -0.082651   0.002135  -0.000050
     4  O   -0.086568   0.190132  -0.082651   8.455164   0.128150  -0.050843
     5  C   -0.002351  -0.027596   0.002135   0.128150   4.682796   0.346754
     6  C   -0.000313  -0.000892  -0.000050  -0.050843   0.346754   4.912039
     7  O   -0.000561   0.000480  -0.000043   0.003341  -0.027464   0.140014
     8  N    0.000035  -0.000015   0.000000  -0.000083   0.002535  -0.038600
     9  O    0.000000  -0.000001   0.000000   0.000000  -0.000063   0.003310
    10  O   -0.000001   0.000000   0.000000  -0.000002   0.000694   0.000394
    11  O    0.000120   0.000887  -0.000021  -0.027261   0.155934  -0.037621
    12  N   -0.000041   0.000069   0.000003  -0.000180  -0.035639   0.002438
    13  O   -0.000084   0.001157  -0.000024  -0.002863   0.003566   0.000513
    14  O    0.000000   0.000002   0.000000  -0.000097   0.003059  -0.000114
    15  H    0.005627  -0.002862   0.000031  -0.027710   0.391659  -0.039595
    16  H   -0.000020   0.000032  -0.000010  -0.001815  -0.027459   0.384927
    17  H    0.000015  -0.000015   0.000001   0.002846  -0.041145   0.392543
               7          8          9         10         11         12
     1  O   -0.000561   0.000035   0.000000  -0.000001   0.000120  -0.000041
     2  N    0.000480  -0.000015  -0.000001   0.000000   0.000887   0.000069
     3  O   -0.000043   0.000000   0.000000   0.000000  -0.000021   0.000003
     4  O    0.003341  -0.000083   0.000000  -0.000002  -0.027261  -0.000180
     5  C   -0.027464   0.002535  -0.000063   0.000694   0.155934  -0.035639
     6  C    0.140014  -0.038600   0.003310   0.000394  -0.037621   0.002438
     7  O    8.404617   0.204220  -0.084432  -0.087456   0.000514  -0.000009
     8  N    0.204220   5.234247   0.376985   0.321674  -0.000007   0.000000
     9  O   -0.084432   0.376985   8.168108  -0.074564   0.000000   0.000000
    10  O   -0.087456   0.321674  -0.074564   8.263661   0.000002   0.000000
    11  O    0.000514  -0.000007   0.000000   0.000002   8.424166   0.188941
    12  N   -0.000009   0.000000   0.000000   0.000000   0.188941   5.236022
    13  O    0.000002   0.000000   0.000000   0.000000  -0.086855   0.324111
    14  O    0.000000   0.000000   0.000000   0.000000  -0.083687   0.373750
    15  H    0.001798  -0.000145  -0.000003  -0.000007  -0.028169  -0.003648
    16  H   -0.030782  -0.003793  -0.000019   0.001575   0.000424  -0.000151
    17  H   -0.030044  -0.003328   0.000014   0.001851   0.003348  -0.000153
              13         14         15         16         17
     1  O   -0.000084   0.000000   0.005627  -0.000020   0.000015
     2  N    0.001157   0.000002  -0.002862   0.000032  -0.000015
     3  O   -0.000024   0.000000   0.000031  -0.000010   0.000001
     4  O   -0.002863  -0.000097  -0.027710  -0.001815   0.002846
     5  C    0.003566   0.003059   0.391659  -0.027459  -0.041145
     6  C    0.000513  -0.000114  -0.039595   0.384927   0.392543
     7  O    0.000002   0.000000   0.001798  -0.030782  -0.030044
     8  N    0.000000   0.000000  -0.000145  -0.003793  -0.003328
     9  O    0.000000   0.000000  -0.000003  -0.000019   0.000014
    10  O    0.000000   0.000000  -0.000007   0.001575   0.001851
    11  O   -0.086855  -0.083687  -0.028169   0.000424   0.003348
    12  N    0.324111   0.373750  -0.003648  -0.000151  -0.000153
    13  O    8.256598  -0.074702   0.002060  -0.000012   0.000017
    14  O   -0.074702   8.164607   0.000011   0.000002  -0.000002
    15  H    0.002060   0.000011   0.404421   0.003286  -0.001265
    16  H   -0.000012   0.000002   0.003286   0.462114  -0.025914
    17  H    0.000017  -0.000002  -0.001265  -0.025914   0.467927
 Mulliken charges:
               1
     1  O   -0.418992
     2  N    0.917395
     3  O   -0.386183
     4  O   -0.499562
     5  C    0.444435
     6  C   -0.014903
     7  O   -0.494195
     8  N    0.906275
     9  O   -0.389334
    10  O   -0.427824
    11  O   -0.510717
    12  N    0.914488
    13  O   -0.423482
    14  O   -0.382830
    15  H    0.294510
    16  H    0.237615
    17  H    0.233303
 Sum of Mulliken charges =   0.00000
 Mulliken charges with hydrogens summed into heavy atoms:
               1
     1  O   -0.418992
     2  N    0.917395
     3  O   -0.386183
     4  O   -0.499562
     5  C    0.738945
     6  C    0.456015
     7  O   -0.494195
     8  N    0.906275
     9  O   -0.389334
    10  O   -0.427824
    11  O   -0.510717
    12  N    0.914488
    13  O   -0.423482
    14  O   -0.382830
 Electronic spatial extent (au):  <R**2>=           3176.2874
 Charge=              0.0000 electrons
 Dipole moment (field-independent basis, Debye):
    X=             -0.3756    Y=             -2.4300    Z=              0.2267  Tot=              2.4693
 Quadrupole moment (field-independent basis, Debye-Ang):
   XX=            -97.7989   YY=            -86.9368   ZZ=            -77.0787
   XY=             -1.3543   XZ=             -1.6183   YZ=             -2.6605
 Traceless Quadrupole moment (field-independent basis, Debye-Ang):
   XX=            -10.5275   YY=              0.3347   ZZ=             10.1928
   XY=             -1.3543   XZ=             -1.6183   YZ=             -2.6605
 Octapole moment (field-independent basis, Debye-Ang**2):
  XXX=            -18.7997  YYY=             -8.7749  ZZZ=              1.1416  XYY=              3.7962
  XXY=             21.8010  XXZ=             -6.0300  XZZ=              1.6191  YZZ=             -7.2007
  YYZ=              8.2905  XYZ=             -4.0970
 Hexadecapole moment (field-independent basis, Debye-Ang**3):
 XXXX=          -2841.5866 YYYY=          -1090.9497 ZZZZ=           -184.0751 XXXY=            -20.4456
 XXXZ=              5.3796 YYYX=              3.9478 YYYZ=              3.1806 ZZZX=             -1.0855
 ZZZY=              0.7302 XXYY=           -635.4402 XXZZ=           -435.0631 YYZZ=           -208.0154
 XXYZ=            -25.3955 YYXZ=             -3.7859 ZZXY=              4.5987
 N-N= 9.805107595808D+02 E-N=-4.112637595744D+03  KE= 9.098982781088D+02
 Calling FoFJK, ICntrl=      2127 FMM=F ISym2X=0 I1Cent= 0 IOpClX= 0 NMat=1 NMatS=1 NMatT=0.
 ***** Axes restored to original set *****
 -------------------------------------------------------------------
 Center     Atomic                   Forces (Hartrees/Bohr)
 Number     Number              X              Y              Z
 -------------------------------------------------------------------
      1        8           0.007831011    0.022120409    0.086881446
      2        7          -0.010454370   -0.032297719    0.010906072
      3        8           0.015798930    0.051712058   -0.088345580
      4        8          -0.023024025   -0.030281218   -0.023201123
      5        6           0.014403438   -0.004810766   -0.026186316
      6        6           0.012110610    0.030802162    0.007514185
      7        8           0.041070780   -0.000430963   -0.011278580
      8        7           0.016635307   -0.015374431   -0.007076309
      9        8          -0.019605575    0.095245507    0.029806115
     10        8          -0.048629134   -0.073515031   -0.007582287
     11        8          -0.040182337   -0.022760151    0.008832695
     12        7          -0.028091026    0.024471404    0.004263586
     13        8           0.055828239    0.069283886    0.006915729
     14        8           0.014237234   -0.101039103   -0.014488783
     15        1           0.001978594   -0.000440077    0.025109573
     16        1          -0.007099011   -0.002944993   -0.011391790
     17        1          -0.002808665   -0.009740974    0.009321367
 -------------------------------------------------------------------
 Cartesian Forces:  Max     0.101039103 RMS     0.036492701

 GradGradGradGradGradGradGradGradGradGradGradGradGradGradGradGradGradGrad
 Berny optimization.
 FormGI is forming the generalized inverse of G from B-inverse, IUseBI=4.
 Internal  Forces:  Max     0.103575655 RMS     0.031604557
 Search for a local minimum.
 Step number   1 out of a maximum of   77
 All quantities printed in internal units (Hartrees-Bohrs-Radians)
 Mixed Optimization -- RFO/linear search
 Second derivative matrix not updated -- first step.
 ITU=  0
     Eigenvalues ---    0.00230   0.01083   0.01135   0.01160   0.01238
     Eigenvalues ---    0.01345   0.01374   0.02907   0.02915   0.02934
     Eigenvalues ---    0.05067   0.05752   0.05914   0.06980   0.08737
     Eigenvalues ---    0.11254   0.13764   0.17589   0.20318   0.22072
     Eigenvalues ---    0.24993   0.25000   0.25000   0.25000   0.25000
     Eigenvalues ---    0.25000   0.25000   0.25000   0.25000   0.28459
     Eigenvalues ---    0.33861   0.33870   0.33905   0.40381   0.41534
     Eigenvalues ---    0.41855   0.43065   0.43671   0.43968   0.90565
     Eigenvalues ---    0.91005   0.91285   0.91969   0.92096   0.92105
 RFO step:  Lambda=-8.37348465D-02 EMin= 2.30000000D-03
 Linear search not attempted -- first point.
 Maximum step size (   0.300) exceeded in Quadratic search.
    -- Step size scaled by   0.871
 Iteration  1 RMS(Cart)=  0.07198245 RMS(Int)=  0.00161664
 Iteration  2 RMS(Cart)=  0.00377453 RMS(Int)=  0.00046689
 Iteration  3 RMS(Cart)=  0.00000605 RMS(Int)=  0.00046687
 Iteration  4 RMS(Cart)=  0.00000001 RMS(Int)=  0.00046687
 Variable       Old X    -DE/DX   Delta X   Delta X   Delta X     New X
                                 (Linear)    (Quad)   (Total)
    R1        2.32346  -0.08982   0.00000  -0.07851  -0.07851   2.24495
    R2        2.32039  -0.10358   0.00000  -0.08992  -0.08992   2.23047
    R3        2.66850  -0.04438   0.00000  -0.07428  -0.07428   2.59422
    R4        2.69521  -0.01592   0.00000  -0.02778  -0.02778   2.66743
    R5        2.91146  -0.01227   0.00000  -0.02902  -0.02902   2.88245
    R6        2.71039  -0.02860   0.00000  -0.05110  -0.05110   2.65929
    R7        2.07566  -0.02070   0.00000  -0.04270  -0.04270   2.03296
    R8        2.69107  -0.00882   0.00000  -0.01530  -0.01530   2.67578
    R9        2.07550  -0.01372   0.00000  -0.02830  -0.02830   2.04720
   R10        2.07490  -0.01373   0.00000  -0.02828  -0.02828   2.04661
   R11        2.67590  -0.05415   0.00000  -0.09170  -0.09170   2.58420
   R12        2.31982  -0.10169   0.00000  -0.08817  -0.08817   2.23165
   R13        2.32674  -0.08835   0.00000  -0.07779  -0.07779   2.24895
   R14        2.66493  -0.04263   0.00000  -0.07095  -0.07095   2.59398
   R15        2.32473  -0.08916   0.00000  -0.07815  -0.07815   2.24658
   R16        2.31978  -0.10306   0.00000  -0.08934  -0.08934   2.23043
    A1        2.26982  -0.00421   0.00000  -0.01088  -0.01091   2.25890
    A2        2.05008   0.00751   0.00000   0.01968   0.01965   2.06973
    A3        1.96282  -0.00324   0.00000  -0.00837  -0.00840   1.95442
    A4        1.98627   0.01656   0.00000   0.04323   0.04323   2.02950
    A5        1.88897   0.01568   0.00000   0.04601   0.04516   1.93413
    A6        1.92414  -0.01017   0.00000  -0.04896  -0.04871   1.87543
    A7        2.01208  -0.01006   0.00000  -0.03831  -0.04024   1.97184
    A8        1.83228  -0.01081   0.00000  -0.03346  -0.03270   1.79958
    A9        1.89242   0.00909   0.00000   0.05442   0.05434   1.94676
   A10        1.90504   0.00650   0.00000   0.02247   0.02204   1.92709
   A11        1.92296  -0.02244   0.00000  -0.06649  -0.06646   1.85651
   A12        1.90037   0.00601   0.00000   0.01757   0.01749   1.91786
   A13        1.89758   0.00566   0.00000   0.01556   0.01541   1.91299
   A14        1.91648   0.00659   0.00000   0.01663   0.01663   1.93311
   A15        1.92461   0.00644   0.00000   0.01524   0.01515   1.93975
   A16        1.90145  -0.00207   0.00000   0.00221   0.00180   1.90324
   A17        1.96442   0.00622   0.00000   0.01624   0.01624   1.98066
   A18        1.96944  -0.00090   0.00000  -0.00235  -0.00235   1.96709
   A19        2.04065   0.00583   0.00000   0.01522   0.01522   2.05587
   A20        2.27310  -0.00493   0.00000  -0.01287  -0.01287   2.26023
   A21        1.96263   0.01414   0.00000   0.03690   0.03690   1.99953
   A22        2.04367   0.00519   0.00000   0.01355   0.01355   2.05722
   A23        1.96627  -0.00143   0.00000  -0.00374  -0.00374   1.96253
   A24        2.27325  -0.00376   0.00000  -0.00982  -0.00982   2.26343
    D1        3.10739   0.00215   0.00000   0.01617   0.01609   3.12348
    D2        0.04761  -0.00236   0.00000  -0.02082  -0.02092   0.02669
    D3       -3.12349  -0.00073   0.00000  -0.00744  -0.00735  -3.13083
    D4       -1.71175  -0.01331   0.00000  -0.08034  -0.07989  -1.79165
    D5        2.57645  -0.00376   0.00000  -0.04016  -0.03892   2.53754
    D6        0.41017   0.00353   0.00000  -0.00089  -0.00258   0.40759
    D7        1.20998   0.00432   0.00000   0.02113   0.02190   1.23187
    D8       -0.89278   0.00620   0.00000   0.03043   0.03131  -0.86147
    D9       -2.96221   0.00200   0.00000   0.00879   0.00952  -2.95270
   D10       -3.01846  -0.00551   0.00000  -0.03071  -0.03079  -3.04926
   D11        1.16197  -0.00363   0.00000  -0.02142  -0.02138   1.14058
   D12       -0.90747  -0.00783   0.00000  -0.04305  -0.04318  -0.95064
   D13       -0.98412   0.00074   0.00000   0.00360   0.00283  -0.98128
   D14       -3.08688   0.00262   0.00000   0.01289   0.01225  -3.07463
   D15        1.12688  -0.00158   0.00000  -0.00875  -0.00955   1.11733
   D16       -1.31639   0.00666   0.00000   0.01733   0.01810  -1.29829
   D17        2.93609  -0.00091   0.00000   0.00530   0.00482   2.94091
   D18        0.91043  -0.00887   0.00000  -0.05088  -0.05117   0.85926
   D19        3.12596   0.00003   0.00000   0.00111   0.00113   3.12709
   D20       -1.06418  -0.00245   0.00000  -0.00835  -0.00848  -1.07267
   D21        1.03122   0.00323   0.00000   0.01454   0.01465   1.04587
   D22        3.13857   0.00001   0.00000  -0.00004  -0.00003   3.13854
   D23       -0.00203  -0.00024   0.00000  -0.00203  -0.00204  -0.00407
   D24       -3.14044  -0.00030   0.00000  -0.00234  -0.00233   3.14042
   D25        0.02574  -0.00137   0.00000  -0.01235  -0.01236   0.01338
   D26       -3.11263  -0.00115   0.00000  -0.01066  -0.01065  -3.12328
   D27       -3.13770   0.00026   0.00000   0.00202   0.00202  -3.13568
         Item               Value     Threshold  Converged?
 Maximum Force            0.103576     0.000450     NO 
 RMS     Force            0.031605     0.000300     NO 
 Maximum Displacement     0.224470     0.001800     NO 
 RMS     Displacement     0.071687     0.001200     NO 
 Predicted change in Energy=-4.565923D-02
 GradGradGradGradGradGradGradGradGradGradGradGradGradGradGradGradGradGrad

                          Input orientation:                          
 ---------------------------------------------------------------------
 Center     Atomic      Atomic             Coordinates (Angstroms)
 Number     Number       Type             X           Y           Z
 ---------------------------------------------------------------------
      1          8           0       -1.451046   -1.992565   -0.056981
      2          7           0       -1.255600   -1.599279    1.046837
      3          8           0       -1.449097   -2.137173    2.079488
      4          8           0       -0.707438   -0.351574    1.212173
      5          6           0       -0.450584    0.379598    0.032400
      6          6           0        1.034462    0.345296   -0.314130
      7          8           0        1.315189   -0.976618   -0.736832
      8          7           0        2.618870   -1.166172   -1.103629
      9          8           0        2.838459   -2.273484   -1.450407
     10          8           0        3.355391   -0.233780   -1.036517
     11          8           0       -0.680066    1.738023    0.319322
     12          7           0       -2.004475    2.083382    0.423745
     13          8           0       -2.815357    1.225849    0.280748
     14          8           0       -2.154288    3.233021    0.645063
     15          1           0       -1.057341    0.063752   -0.797917
     16          1           0        1.622535    0.602404    0.558612
     17          1           0        1.240385    1.059322   -1.101975
 ---------------------------------------------------------------------
                    Distance matrix (angstroms):
                    1          2          3          4          5
     1  O    0.000000
     2  N    1.187976   0.000000
     3  O    2.141359   1.180313   0.000000
     4  O    2.203760   1.372801   2.119117   0.000000
     5  C    2.576057   2.364971   3.394368   1.411543   0.000000
     6  C    3.421910   3.298179   4.249720   2.418563   1.525326
     7  O    3.024302   3.190319   4.113371   2.877555   2.355630
     8  N    4.282828   4.452370   5.255800   4.134107   3.619601
     9  O    4.518895   4.842737   5.555347   4.832853   4.478321
    10  O    5.211013   5.240819   6.034525   4.645112   4.000532
    11  O    3.827963   3.463827   4.325128   2.272520   1.407233
    12  N    4.141343   3.809337   4.567605   2.869309   2.338934
    13  O    3.511921   3.316788   4.051179   2.792694   2.523880
    14  O    5.319226   4.931550   5.603022   3.906957   3.379348
    15  H    2.220908   2.491605   3.643762   2.082160   1.075796
    16  H    4.069363   3.656423   4.387854   2.601152   2.150433
    17  H    4.201170   4.232669   5.250961   3.337653   2.146673
                    6          7          8          9         10
     6  C    0.000000
     7  O    1.415960   0.000000
     8  N    2.327701   1.367499   0.000000
     9  O    3.376913   2.124006   1.180937   0.000000
    10  O    2.498777   2.191813   1.190094   2.144508   0.000000
    11  O    2.297946   3.530691   4.619753   5.621757   4.691612
    12  N    3.577785   4.661621   5.853870   6.778550   6.019117
    13  O    3.993790   4.790380   6.096645   6.870798   6.476406
    14  O    4.407622   5.627430   6.722638   7.722702   6.723317
    15  H    2.165399   2.591331   3.888534   4.589736   4.429182
    16  H    1.083334   2.065417   2.623660   3.712865   2.499286
    17  H    1.083022   2.069777   2.617833   3.712525   2.479849
                   11         12         13         14         15
    11  O    0.000000
    12  N    1.372675   0.000000
    13  O    2.196196   1.188839   0.000000
    14  O    2.124725   1.180295   2.144406   0.000000
    15  H    2.047863   2.543310   2.367405   3.650993   0.000000
    16  H    2.578538   3.920036   4.490075   4.603478   3.051565
    17  H    2.483717   3.729026   4.288204   4.393281   2.522529
                   16         17
    16  H    0.000000
    17  H    1.764189   0.000000
 Stoichiometry    C2H3N3O9
 Framework group  C1[X(C2H3N3O9)]
 Deg. of freedom    45
 Full point group                 C1      NOp   1
 Largest Abelian subgroup         C1      NOp   1
 Largest concise Abelian subgroup C1      NOp   1
                         Standard orientation:                         
 ---------------------------------------------------------------------
 Center     Atomic      Atomic             Coordinates (Angstroms)
 Number     Number       Type             X           Y           Z
 ---------------------------------------------------------------------
      1          8           0       -0.118008    2.078216    0.982550
      2          7           0       -0.485562    2.034063   -0.146274
      3          8           0       -0.690437    2.916451   -0.902948
      4          8           0       -0.702627    0.805384   -0.718825
      5          6           0       -0.496802   -0.316684    0.112470
      6          6           0        0.836853   -0.986883   -0.201883
      7          8           0        1.844741   -0.106526    0.260799
      8          7           0        3.112954   -0.579270    0.065342
      9          8           0        3.942311    0.166729    0.452985
     10          8           0        3.234598   -1.644795   -0.450587
     11          8           0       -1.439840   -1.293900   -0.256361
     12          7           0       -2.722471   -1.034277    0.157996
     13          8           0       -2.918761   -0.029046    0.761584
     14          8           0       -3.477833   -1.885943   -0.153756
     15          1           0       -0.585707   -0.085672    1.159402
     16          1           0        0.926624   -1.146045   -1.269695
     17          1           0        0.891183   -1.943059    0.303796
 ---------------------------------------------------------------------
 Rotational constants (GHZ):           1.0144923           0.4339280           0.3273516
 Standard basis: 6-31G(d) (6D, 7F)
 There are   216 symmetry adapted cartesian basis functions of A   symmetry.
 There are   216 symmetry adapted basis functions of A   symmetry.
   216 basis functions,   404 primitive gaussians,   216 cartesian basis functions
    54 alpha electrons       54 beta electrons
       nuclear repulsion energy      1000.8386588285 Hartrees.
 NAtoms=   17 NActive=   17 NUniq=   17 SFac= 1.00D+00 NAtFMM=   60 NAOKFM=F Big=F
 Integral buffers will be    131072 words long.
 Raffenetti 1 integral format.
 Two-electron integral symmetry is turned on.
 One-electron integrals computed using PRISM.
 NBasis=   216 RedAO= T EigKep=  2.02D-03  NBF=   216
 NBsUse=   216 1.00D-06 EigRej= -1.00D+00 NBFU=   216
 Initial guess from the checkpoint file:  "C:\g16w\Scratch\Gau-13496.chk"
 B after Tr=     0.000000    0.000000    0.000000
         Rot=    0.999884    0.002913    0.000295   -0.014929 Ang=   1.74 deg.
 ExpMin= 1.61D-01 ExpMax= 5.48D+03 ExpMxC= 8.25D+02 IAcc=3 IRadAn=         5 AccDes= 0.00D+00
 Harris functional with IExCor=  205 and IRadAn=       5 diagonalized for initial guess.
 HarFok:  IExCor=  205 AccDes= 0.00D+00 IRadAn=         5 IDoV= 1 UseB2=F ITyADJ=14
 ICtDFT=  3500011 ScaDFX=  1.000000  1.000000  1.000000  1.000000
 FoFCou: FMM=F IPFlag=           0 FMFlag=      100000 FMFlg1=           0
         NFxFlg=           0 DoJE=T BraDBF=F KetDBF=T FulRan=T
         wScrn=  0.000000 ICntrl=       500 IOpCl=  0 I1Cent=   200000004 NGrid=           0
         NMat0=    1 NMatS0=      1 NMatT0=    0 NMatD0=    1 NMtDS0=    0 NMtDT0=    0
 Petite list used in FoFCou.
 Requested convergence on RMS density matrix=1.00D-08 within 128 cycles.
 Requested convergence on MAX density matrix=1.00D-06.
 Requested convergence on             energy=1.00D-06.
 No special actions if energy rises.
 Integral accuracy reduced to 1.0D-05 until final iterations.
 Initial convergence to 1.0D-05 achieved.  Increase integral accuracy.
 SCF Done:  E(RHF) =  -914.058006320     A.U. after   15 cycles
            NFock= 15  Conv=0.77D-08     -V/T= 2.0028
 Calling FoFJK, ICntrl=      2127 FMM=F ISym2X=0 I1Cent= 0 IOpClX= 0 NMat=1 NMatS=1 NMatT=0.
 ***** Axes restored to original set *****
 -------------------------------------------------------------------
 Center     Atomic                   Forces (Hartrees/Bohr)
 Number     Number              X              Y              Z
 -------------------------------------------------------------------
      1        8           0.002602040    0.008900088    0.016266210
      2        7          -0.002363837   -0.004984226    0.009712584
      3        8           0.002953650    0.009764066   -0.019179750
      4        8          -0.004267245   -0.012293973   -0.012150521
      5        6           0.009472319    0.003955244   -0.008608844
      6        6          -0.000859024    0.010489425    0.006090292
      7        8           0.018965673    0.003626881   -0.004015978
      8        7          -0.005496254   -0.011082408   -0.000923435
      9        8          -0.001715241    0.019250018    0.005466143
     10        8          -0.010822182   -0.012294449   -0.000787777
     11        8          -0.017471659   -0.008749947    0.003521737
     12        7          -0.002297606    0.012154344    0.001979497
     13        8           0.013516726    0.012254574    0.000894207
     14        8           0.002289823   -0.021977129   -0.003606197
     15        1          -0.001188564   -0.003796809    0.006751622
     16        1          -0.001846419   -0.001570269   -0.002524486
     17        1          -0.001472200   -0.003645429    0.001114696
 -------------------------------------------------------------------
 Cartesian Forces:  Max     0.021977129 RMS     0.009164242

 GradGradGradGradGradGradGradGradGradGradGradGradGradGradGradGradGradGrad
 Berny optimization.
 Using GEDIIS/GDIIS optimizer.
 FormGI is forming the generalized inverse of G from B-inverse, IUseBI=4.
 Internal  Forces:  Max     0.022373164 RMS     0.007325804
 Search for a local minimum.
 Step number   2 out of a maximum of   77
 All quantities printed in internal units (Hartrees-Bohrs-Radians)
 Mixed Optimization -- RFO/linear search
 Update second derivatives using D2CorX and points    1    2
 DE= -4.66D-02 DEPred=-4.57D-02 R= 1.02D+00
 TightC=F SS=  1.41D+00  RLast= 3.27D-01 DXNew= 5.0454D-01 9.8152D-01
 Trust test= 1.02D+00 RLast= 3.27D-01 DXMaxT set to 5.05D-01
 ITU=  1  0
 Use linear search instead of GDIIS.
     Eigenvalues ---    0.00230   0.01083   0.01135   0.01159   0.01238
     Eigenvalues ---    0.01350   0.01374   0.02889   0.02894   0.02928
     Eigenvalues ---    0.05290   0.05455   0.05866   0.07208   0.09263
     Eigenvalues ---    0.10886   0.13480   0.17759   0.20175   0.22086
     Eigenvalues ---    0.24433   0.24998   0.25000   0.25000   0.25000
     Eigenvalues ---    0.25000   0.25000   0.25000   0.25464   0.28466
     Eigenvalues ---    0.33862   0.33895   0.34090   0.40591   0.41466
     Eigenvalues ---    0.41840   0.42616   0.43505   0.43952   0.90231
     Eigenvalues ---    0.90824   0.91124   0.91543   0.92022   0.92269
 RFO step:  Lambda=-3.44597933D-03 EMin= 2.29986083D-03
 Quartic linear search produced a step of  0.25436.
 Iteration  1 RMS(Cart)=  0.08311386 RMS(Int)=  0.00503405
 Iteration  2 RMS(Cart)=  0.00577323 RMS(Int)=  0.00017138
 Iteration  3 RMS(Cart)=  0.00001957 RMS(Int)=  0.00017082
 Iteration  4 RMS(Cart)=  0.00000000 RMS(Int)=  0.00017082
 Variable       Old X    -DE/DX   Delta X   Delta X   Delta X     New X
                                 (Linear)    (Quad)   (Total)
    R1        2.24495  -0.01849  -0.01997  -0.00043  -0.02040   2.22455
    R2        2.23047  -0.02171  -0.02287  -0.00105  -0.02392   2.20655
    R3        2.59422  -0.01453  -0.01889  -0.01333  -0.03223   2.56199
    R4        2.66743  -0.00500  -0.00707  -0.00430  -0.01137   2.65606
    R5        2.88245  -0.00427  -0.00738  -0.00585  -0.01323   2.86922
    R6        2.65929  -0.00488  -0.01300   0.00473  -0.00827   2.65102
    R7        2.03296  -0.00343  -0.01086   0.00498  -0.00588   2.02708
    R8        2.67578   0.00073  -0.00389   0.00801   0.00412   2.67990
    R9        2.04720  -0.00341  -0.00720  -0.00086  -0.00806   2.03914
   R10        2.04661  -0.00349  -0.00719  -0.00117  -0.00837   2.03825
   R11        2.58420  -0.01763  -0.02332  -0.01614  -0.03947   2.54473
   R12        2.23165  -0.01997  -0.02243   0.00079  -0.02164   2.21001
   R13        2.24895  -0.01637  -0.01979   0.00209  -0.01770   2.23125
   R14        2.59398  -0.01248  -0.01805  -0.00858  -0.02662   2.56736
   R15        2.24658  -0.01817  -0.01988  -0.00017  -0.02005   2.22654
   R16        2.23043  -0.02237  -0.02273  -0.00209  -0.02481   2.20562
    A1        2.25890   0.00162  -0.00278   0.01321   0.01035   2.26926
    A2        2.06973  -0.00413   0.00500  -0.02943  -0.02451   2.04521
    A3        1.95442   0.00253  -0.00214   0.01650   0.01428   1.96871
    A4        2.02950   0.00617   0.01100   0.01049   0.02149   2.05100
    A5        1.93413   0.00129   0.01149  -0.02097  -0.00967   1.92447
    A6        1.87543  -0.00300  -0.01239   0.00304  -0.00916   1.86627
    A7        1.97184  -0.00360  -0.01024  -0.02668  -0.03727   1.93456
    A8        1.79958   0.00011  -0.00832   0.02544   0.01698   1.81657
    A9        1.94676   0.00356   0.01382   0.00390   0.01708   1.96384
   A10        1.92709   0.00178   0.00561   0.02061   0.02549   1.95258
   A11        1.85651  -0.00632  -0.01690  -0.00662  -0.02357   1.83293
   A12        1.91786   0.00160   0.00445   0.00099   0.00533   1.92320
   A13        1.91299   0.00135   0.00392  -0.00006   0.00373   1.91672
   A14        1.93311   0.00150   0.00423  -0.00471  -0.00050   1.93261
   A15        1.93975   0.00153   0.00385  -0.00355   0.00023   1.93998
   A16        1.90324   0.00027   0.00046   0.01345   0.01374   1.91699
   A17        1.98066   0.01077   0.00413   0.04573   0.04986   2.03052
   A18        1.96709   0.00378  -0.00060   0.01977   0.01917   1.98626
   A19        2.05587  -0.00286   0.00387  -0.02120  -0.01733   2.03853
   A20        2.26023  -0.00091  -0.00327   0.00144  -0.00184   2.25839
   A21        1.99953   0.00995   0.00939   0.03208   0.04146   2.04099
   A22        2.05722  -0.00279   0.00345  -0.02010  -0.01666   2.04056
   A23        1.96253   0.00204  -0.00095   0.01178   0.01083   1.97335
   A24        2.26343   0.00076  -0.00250   0.00828   0.00578   2.26920
    D1        3.12348   0.00123   0.00409   0.01866   0.02287  -3.13683
    D2        0.02669  -0.00153  -0.00532  -0.03709  -0.04228  -0.01559
    D3       -3.13083  -0.00039  -0.00187  -0.02025  -0.02225   3.13010
    D4       -1.79165  -0.00430  -0.02032  -0.07266  -0.09307  -1.88472
    D5        2.53754  -0.00345  -0.00990  -0.09392  -0.10343   2.43411
    D6        0.40759  -0.00131  -0.00066  -0.10500  -0.10596   0.30163
    D7        1.23187   0.00029   0.00557  -0.06799  -0.06225   1.16962
    D8       -0.86147   0.00133   0.00796  -0.05901  -0.05083  -0.91230
    D9       -2.95270  -0.00084   0.00242  -0.07613  -0.07356  -3.02626
   D10       -3.04926  -0.00256  -0.00783  -0.06016  -0.06817  -3.11743
   D11        1.14058  -0.00152  -0.00544  -0.05118  -0.05675   1.08384
   D12       -0.95064  -0.00369  -0.01098  -0.06830  -0.07948  -1.03012
   D13       -0.98128   0.00130   0.00072  -0.01940  -0.01869  -0.99998
   D14       -3.07463   0.00234   0.00312  -0.01042  -0.00727  -3.08190
   D15        1.11733   0.00018  -0.00243  -0.02754  -0.03000   1.08733
   D16       -1.29829   0.00052   0.00460  -0.06932  -0.06444  -1.36273
   D17        2.94091   0.00029   0.00123  -0.05892  -0.05757   2.88334
   D18        0.85926  -0.00479  -0.01302  -0.08744  -0.10086   0.75840
   D19        3.12709   0.00016   0.00029   0.01111   0.01140   3.13849
   D20       -1.07267  -0.00089  -0.00216   0.00573   0.00359  -1.06908
   D21        1.04587   0.00152   0.00373   0.01718   0.02090   1.06677
   D22        3.13854  -0.00005  -0.00001  -0.00541  -0.00541   3.13313
   D23       -0.00407  -0.00017  -0.00052  -0.00616  -0.00668  -0.01075
   D24        3.14042  -0.00013  -0.00059  -0.00088  -0.00147   3.13895
   D25        0.01338  -0.00180  -0.00314  -0.10074  -0.10389  -0.09050
   D26       -3.12328  -0.00156  -0.00271  -0.09487  -0.09757   3.06233
   D27       -3.13568   0.00028   0.00051   0.00707   0.00759  -3.12809
         Item               Value     Threshold  Converged?
 Maximum Force            0.022373     0.000450     NO 
 RMS     Force            0.007326     0.000300     NO 
 Maximum Displacement     0.322868     0.001800     NO 
 RMS     Displacement     0.083103     0.001200     NO 
 Predicted change in Energy=-5.076885D-03
 GradGradGradGradGradGradGradGradGradGradGradGradGradGradGradGradGradGrad

                          Input orientation:                          
 ---------------------------------------------------------------------
 Center     Atomic      Atomic             Coordinates (Angstroms)
 Number     Number       Type             X           Y           Z
 ---------------------------------------------------------------------
      1          8           0       -1.572439   -1.899854   -0.044865
      2          7           0       -1.250083   -1.587627    1.043417
      3          8           0       -1.373901   -2.156611    2.055517
      4          8           0       -0.641486   -0.384814    1.187987
      5          6           0       -0.429081    0.379053    0.027426
      6          6           0        1.045906    0.389508   -0.332599
      7          8           0        1.343014   -0.946488   -0.704032
      8          7           0        2.613299   -1.194933   -1.075545
      9          8           0        2.811123   -2.310959   -1.363738
     10          8           0        3.358624   -0.279198   -1.069107
     11          8           0       -0.708831    1.713023    0.359499
     12          7           0       -2.018231    2.068954    0.426914
     13          8           0       -2.809144    1.255207    0.109894
     14          8           0       -2.175470    3.167243    0.789284
     15          1           0       -1.046012    0.029775   -0.777593
     16          1           0        1.635332    0.688932    0.520225
     17          1           0        1.217382    1.068788   -1.152684
 ---------------------------------------------------------------------
                    Distance matrix (angstroms):
                    1          2          3          4          5
     1  O    0.000000
     2  N    1.177181   0.000000
     3  O    2.125310   1.167656   0.000000
     4  O    2.163780   1.355747   2.104354   0.000000
     5  C    2.550668   2.360955   3.381631   1.405528   0.000000
     6  C    3.489943   3.327769   4.247503   2.399801   1.518326
     7  O    3.137400   3.191988   4.057233   2.798831   2.330753
     8  N    4.368023   4.423791   5.160052   4.046418   3.598619
     9  O    4.596091   4.776086   5.406437   4.705513   4.435136
    10  O    5.290650   5.235926   5.973671   4.594182   3.997798
    11  O    3.736603   3.413940   4.277015   2.256512   1.402857
    12  N    4.021535   3.786913   4.574156   2.914727   2.353880
    13  O    3.392314   3.373995   4.181611   2.924157   2.537547
    14  O    5.170582   4.850744   5.530758   3.889624   3.377026
    15  H    2.130137   2.444117   3.593648   2.049153   1.072686
    16  H    4.160641   3.712421   4.416981   2.604369   2.144919
    17  H    4.221753   4.238842   5.235504   3.323716   2.139915
                    6          7          8          9         10
     6  C    0.000000
     7  O    1.418140   0.000000
     8  N    2.349286   1.346615   0.000000
     9  O    3.387000   2.110057   1.169489   0.000000
    10  O    2.517594   2.154353   1.180729   2.124763   0.000000
    11  O    2.304299   3.523374   4.642425   5.617122   4.749110
    12  N    3.575798   4.655093   5.861861   6.761119   6.054954
    13  O    3.975757   4.769733   6.067236   6.817370   6.464194
    14  O    4.399056   5.615381   6.740807   7.714422   6.779216
    15  H    2.168766   2.581849   3.870303   4.549736   4.425072
    16  H    1.079068   2.063699   2.655532   3.732446   2.536333
    17  H    1.078594   2.068432   2.660634   3.742626   2.531594
                   11         12         13         14         15
    11  O    0.000000
    12  N    1.358587   0.000000
    13  O    2.164073   1.178232   0.000000
    14  O    2.109621   1.167165   2.125793   0.000000
    15  H    2.059124   2.560136   2.323349   3.684357   0.000000
    16  H    2.563142   3.906621   4.499156   4.553749   3.050971
    17  H    2.532199   3.736930   4.223951   4.436912   2.518570
                   16         17
    16  H    0.000000
    17  H    1.765672   0.000000
 Stoichiometry    C2H3N3O9
 Framework group  C1[X(C2H3N3O9)]
 Deg. of freedom    45
 Full point group                 C1      NOp   1
 Largest Abelian subgroup         C1      NOp   1
 Largest concise Abelian subgroup C1      NOp   1
                         Standard orientation:                         
 ---------------------------------------------------------------------
 Center     Atomic      Atomic             Coordinates (Angstroms)
 Number     Number       Type             X           Y           Z
 ---------------------------------------------------------------------
      1          8           0       -0.267298    2.050417    1.000698
      2          7           0       -0.477643    2.016187   -0.157032
      3          8           0       -0.594921    2.887938   -0.924962
      4          8           0       -0.616935    0.793193   -0.725304
      5          6           0       -0.479932   -0.329754    0.108800
      6          6           0        0.827311   -1.044937   -0.182648
      7          8           0        1.840031   -0.143607    0.233433
      8          7           0        3.111194   -0.559712    0.077315
      9          8           0        3.909481    0.220580    0.426010
     10          8           0        3.266272   -1.637373   -0.379540
     11          8           0       -1.465887   -1.249316   -0.278892
     12          7           0       -2.732863   -1.010487    0.149465
     13          8           0       -2.884428   -0.104973    0.887911
     14          8           0       -3.510968   -1.767141   -0.279839
     15          1           0       -0.575461   -0.052659    1.140666
     16          1           0        0.910947   -1.252586   -1.238240
     17          1           0        0.872639   -1.966283    0.376308
 ---------------------------------------------------------------------
 Rotational constants (GHZ):           1.0339023           0.4332094           0.3306939
 Standard basis: 6-31G(d) (6D, 7F)
 There are   216 symmetry adapted cartesian basis functions of A   symmetry.
 There are   216 symmetry adapted basis functions of A   symmetry.
   216 basis functions,   404 primitive gaussians,   216 cartesian basis functions
    54 alpha electrons       54 beta electrons
       nuclear repulsion energy      1005.7295571741 Hartrees.
 NAtoms=   17 NActive=   17 NUniq=   17 SFac= 1.00D+00 NAtFMM=   60 NAOKFM=F Big=F
 Integral buffers will be    131072 words long.
 Raffenetti 1 integral format.
 Two-electron integral symmetry is turned on.
 One-electron integrals computed using PRISM.
 NBasis=   216 RedAO= T EigKep=  1.95D-03  NBF=   216
 NBsUse=   216 1.00D-06 EigRej= -1.00D+00 NBFU=   216
 Initial guess from the checkpoint file:  "C:\g16w\Scratch\Gau-13496.chk"
 B after Tr=     0.000000    0.000000    0.000000
         Rot=    0.999991   -0.001501    0.003830    0.001092 Ang=  -0.49 deg.
 ExpMin= 1.61D-01 ExpMax= 5.48D+03 ExpMxC= 8.25D+02 IAcc=3 IRadAn=         5 AccDes= 0.00D+00
 Harris functional with IExCor=  205 and IRadAn=       5 diagonalized for initial guess.
 HarFok:  IExCor=  205 AccDes= 0.00D+00 IRadAn=         5 IDoV= 1 UseB2=F ITyADJ=14
 ICtDFT=  3500011 ScaDFX=  1.000000  1.000000  1.000000  1.000000
 FoFCou: FMM=F IPFlag=           0 FMFlag=      100000 FMFlg1=           0
         NFxFlg=           0 DoJE=T BraDBF=F KetDBF=T FulRan=T
         wScrn=  0.000000 ICntrl=       500 IOpCl=  0 I1Cent=   200000004 NGrid=           0
         NMat0=    1 NMatS0=      1 NMatT0=    0 NMatD0=    1 NMtDS0=    0 NMtDT0=    0
 Petite list used in FoFCou.
 Requested convergence on RMS density matrix=1.00D-08 within 128 cycles.
 Requested convergence on MAX density matrix=1.00D-06.
 Requested convergence on             energy=1.00D-06.
 No special actions if energy rises.
 Integral accuracy reduced to 1.0D-05 until final iterations.
 Initial convergence to 1.0D-05 achieved.  Increase integral accuracy.
 SCF Done:  E(RHF) =  -914.061749630     A.U. after   16 cycles
            NFock= 16  Conv=0.43D-08     -V/T= 2.0023
 Calling FoFJK, ICntrl=      2127 FMM=F ISym2X=0 I1Cent= 0 IOpClX= 0 NMat=1 NMatS=1 NMatT=0.
 ***** Axes restored to original set *****
 -------------------------------------------------------------------
 Center     Atomic                   Forces (Hartrees/Bohr)
 Number     Number              X              Y              Z
 -------------------------------------------------------------------
      1        8          -0.003138887   -0.007119078   -0.003906428
      2        7          -0.000701921    0.007700844   -0.001244434
      3        8           0.000134933   -0.002135793    0.002976820
      4        8           0.002450248   -0.000929872    0.002628717
      5        6          -0.001032592    0.001136510   -0.005559989
      6        6           0.002941016    0.005779870    0.003175554
      7        8          -0.001569728   -0.004520860   -0.001170812
      8        7          -0.007713717    0.004665612    0.003318674
      9        8          -0.000447273   -0.004099656   -0.000727900
     10        8           0.005239155    0.004447832   -0.000453244
     11        8           0.002282415   -0.000754841    0.001242600
     12        7           0.005807681   -0.003235607   -0.001702843
     13        8          -0.005327248   -0.003403161   -0.000434101
     14        8           0.000119219    0.003161940    0.001204051
     15        1           0.000295399    0.000817078    0.001952756
     16        1           0.000364950   -0.000426419   -0.000633649
     17        1           0.000296349   -0.001084399   -0.000665772
 -------------------------------------------------------------------
 Cartesian Forces:  Max     0.007713717 RMS     0.003266961

 GradGradGradGradGradGradGradGradGradGradGradGradGradGradGradGradGradGrad
 Berny optimization.
 Using GEDIIS/GDIIS optimizer.
 FormGI is forming the generalized inverse of G from B-inverse, IUseBI=4.
 Internal  Forces:  Max     0.008633450 RMS     0.002804451
 Search for a local minimum.
 Step number   3 out of a maximum of   77
 All quantities printed in internal units (Hartrees-Bohrs-Radians)
 Mixed Optimization -- RFO/linear search
 Update second derivatives using D2CorX and points    1    2    3
 DE= -3.74D-03 DEPred=-5.08D-03 R= 7.37D-01
 TightC=F SS=  1.41D+00  RLast= 3.41D-01 DXNew= 8.4853D-01 1.0232D+00
 Trust test= 7.37D-01 RLast= 3.41D-01 DXMaxT set to 8.49D-01
 ITU=  1  1  0
 Use linear search instead of GDIIS.
     Eigenvalues ---    0.00231   0.01083   0.01137   0.01187   0.01282
     Eigenvalues ---    0.01371   0.01377   0.02896   0.02925   0.02947
     Eigenvalues ---    0.05312   0.05623   0.05783   0.07111   0.09323
     Eigenvalues ---    0.10788   0.13367   0.17893   0.20055   0.21206
     Eigenvalues ---    0.23760   0.24999   0.25000   0.25000   0.25000
     Eigenvalues ---    0.25000   0.25000   0.25102   0.28361   0.29510
     Eigenvalues ---    0.33875   0.33926   0.33949   0.39533   0.41442
     Eigenvalues ---    0.41730   0.42043   0.43842   0.44811   0.90343
     Eigenvalues ---    0.91035   0.91231   0.92017   0.92076   1.03335
 RFO step:  Lambda=-1.90104098D-03 EMin= 2.31033966D-03
 Quartic linear search produced a step of -0.09917.
 Iteration  1 RMS(Cart)=  0.06463332 RMS(Int)=  0.00174630
 Iteration  2 RMS(Cart)=  0.00281375 RMS(Int)=  0.00006402
 Iteration  3 RMS(Cart)=  0.00000550 RMS(Int)=  0.00006388
 Iteration  4 RMS(Cart)=  0.00000000 RMS(Int)=  0.00006388
 Variable       Old X    -DE/DX   Delta X   Delta X   Delta X     New X
                                 (Linear)    (Quad)   (Total)
    R1        2.22455   0.00636   0.00202   0.00240   0.00442   2.22897
    R2        2.20655   0.00361   0.00237  -0.00104   0.00133   2.20788
    R3        2.56199   0.00327   0.00320  -0.00002   0.00318   2.56517
    R4        2.65606   0.00192   0.00113   0.00177   0.00290   2.65896
    R5        2.86922  -0.00151   0.00131  -0.00765  -0.00634   2.86288
    R6        2.65102  -0.00453   0.00082  -0.01173  -0.01091   2.64010
    R7        2.02708  -0.00190   0.00058  -0.00624  -0.00566   2.02143
    R8        2.67990  -0.00166  -0.00041  -0.00260  -0.00301   2.67689
    R9        2.03914  -0.00042   0.00080  -0.00282  -0.00202   2.03712
   R10        2.03825  -0.00013   0.00083  -0.00211  -0.00128   2.03696
   R11        2.54473  -0.00427   0.00391  -0.01727  -0.01336   2.53137
   R12        2.21001   0.00402   0.00215  -0.00015   0.00199   2.21201
   R13        2.23125   0.00675   0.00176   0.00344   0.00519   2.23645
   R14        2.56736  -0.00154   0.00264  -0.00871  -0.00607   2.56128
   R15        2.22654   0.00604   0.00199   0.00218   0.00417   2.23071
   R16        2.20562   0.00333   0.00246  -0.00152   0.00094   2.20656
    A1        2.26926  -0.00446  -0.00103  -0.01374  -0.01483   2.25443
    A2        2.04521   0.00863   0.00243   0.02567   0.02803   2.07325
    A3        1.96871  -0.00417  -0.00142  -0.01185  -0.01334   1.95537
    A4        2.05100   0.00729  -0.00213   0.03100   0.02887   2.07987
    A5        1.92447   0.00055   0.00096  -0.00160  -0.00077   1.92370
    A6        1.86627  -0.00052   0.00091  -0.01434  -0.01352   1.85275
    A7        1.93456  -0.00064   0.00370  -0.00820  -0.00459   1.92997
    A8        1.81657  -0.00190  -0.00168  -0.00904  -0.01073   1.80583
    A9        1.96384   0.00197  -0.00169   0.02482   0.02318   1.98701
   A10        1.95258   0.00038  -0.00253   0.00657   0.00410   1.95668
   A11        1.83293  -0.00474   0.00234  -0.02751  -0.02517   1.80776
   A12        1.92320   0.00170  -0.00053   0.01156   0.01093   1.93413
   A13        1.91672   0.00165  -0.00037   0.00958   0.00906   1.92578
   A14        1.93261   0.00103   0.00005  -0.00040  -0.00029   1.93232
   A15        1.93998   0.00074  -0.00002  -0.00418  -0.00417   1.93581
   A16        1.91699  -0.00047  -0.00136   0.00984   0.00833   1.92532
   A17        2.03052  -0.00573  -0.00494  -0.00962  -0.01456   2.01596
   A18        1.98626  -0.00275  -0.00190  -0.00566  -0.00756   1.97870
   A19        2.03853   0.00288   0.00172   0.00652   0.00824   2.04677
   A20        2.25839  -0.00013   0.00018  -0.00086  -0.00068   2.25771
   A21        2.04099  -0.00362  -0.00411  -0.00388  -0.00800   2.03300
   A22        2.04056   0.00290   0.00165   0.00680   0.00842   2.04898
   A23        1.97335  -0.00209  -0.00107  -0.00508  -0.00619   1.96716
   A24        2.26920  -0.00080  -0.00057  -0.00155  -0.00216   2.26704
    D1       -3.13683  -0.00096  -0.00227  -0.02146  -0.02356   3.12279
    D2       -0.01559   0.00057   0.00419   0.01140   0.01578   0.00019
    D3        3.13010  -0.00022   0.00221  -0.00697  -0.00495   3.12515
    D4       -1.88472  -0.00283   0.00923  -0.11715  -0.10786  -1.99257
    D5        2.43411  -0.00060   0.01026  -0.09826  -0.08800   2.34611
    D6        0.30163  -0.00035   0.01051  -0.09220  -0.08176   0.21987
    D7        1.16962   0.00073   0.00617  -0.03728  -0.03110   1.13852
    D8       -0.91230   0.00135   0.00504  -0.02701  -0.02189  -0.93419
    D9       -3.02626  -0.00023   0.00730  -0.05288  -0.04563  -3.07189
   D10       -3.11743  -0.00061   0.00676  -0.05923  -0.05245   3.11331
   D11        1.08384   0.00001   0.00563  -0.04896  -0.04324   1.04060
   D12       -1.03012  -0.00157   0.00788  -0.07483  -0.06698  -1.09710
   D13       -0.99998  -0.00029   0.00185  -0.04348  -0.04169  -1.04166
   D14       -3.08190   0.00033   0.00072  -0.03321  -0.03247  -3.11437
   D15        1.08733  -0.00125   0.00298  -0.05909  -0.05622   1.03111
   D16       -1.36273   0.00076   0.00639   0.02336   0.02982  -1.33291
   D17        2.88334   0.00125   0.00571   0.03562   0.04124   2.92458
   D18        0.75840  -0.00013   0.01000   0.00776   0.01778   0.77619
   D19        3.13849   0.00010  -0.00113   0.01208   0.01098  -3.13371
   D20       -1.06908  -0.00010  -0.00036   0.00962   0.00932  -1.05976
   D21        1.06677   0.00054  -0.00207   0.01901   0.01686   1.08363
   D22        3.13313  -0.00010   0.00054  -0.00872  -0.00819   3.12494
   D23       -0.01075  -0.00012   0.00066  -0.00978  -0.00911  -0.01986
   D24        3.13895  -0.00002   0.00015  -0.00120  -0.00106   3.13790
   D25       -0.09050   0.00106   0.01030   0.03617   0.04647  -0.04404
   D26        3.06233   0.00051   0.00968   0.02181   0.03149   3.09382
   D27       -3.12809  -0.00065  -0.00075  -0.01724  -0.01799   3.13710
         Item               Value     Threshold  Converged?
 Maximum Force            0.008633     0.000450     NO 
 RMS     Force            0.002804     0.000300     NO 
 Maximum Displacement     0.299859     0.001800     NO 
 RMS     Displacement     0.065137     0.001200     NO 
 Predicted change in Energy=-1.058243D-03
 GradGradGradGradGradGradGradGradGradGradGradGradGradGradGradGradGradGrad

                          Input orientation:                          
 ---------------------------------------------------------------------
 Center     Atomic      Atomic             Coordinates (Angstroms)
 Number     Number       Type             X           Y           Z
 ---------------------------------------------------------------------
      1          8           0       -1.731118   -1.886569   -0.025248
      2          7           0       -1.317457   -1.564412    1.031337
      3          8           0       -1.400848   -2.118294    2.056678
      4          8           0       -0.618600   -0.405247    1.134060
      5          6           0       -0.409822    0.374081   -0.018709
      6          6           0        1.064252    0.410128   -0.366482
      7          8           0        1.359898   -0.934155   -0.701308
      8          7           0        2.631676   -1.176661   -1.045043
      9          8           0        2.838297   -2.300954   -1.296922
     10          8           0        3.375055   -0.255874   -1.057496
     11          8           0       -0.690020    1.692841    0.347623
     12          7           0       -1.999526    2.022735    0.463386
     13          8           0       -2.794565    1.189905    0.203114
     14          8           0       -2.157310    3.123064    0.820902
     15          1           0       -1.034804    0.037006   -0.818722
     16          1           0        1.649924    0.729837    0.480192
     17          1           0        1.234966    1.062569   -1.207361
 ---------------------------------------------------------------------
                    Distance matrix (angstroms):
                    1          2          3          4          5
     1  O    0.000000
     2  N    1.179522   0.000000
     3  O    2.120658   1.168359   0.000000
     4  O    2.185407   1.357430   2.097060   0.000000
     5  C    2.618473   2.384146   3.391356   1.407060   0.000000
     6  C    3.633917   3.394885   4.282678   2.397593   1.514972
     7  O    3.304319   3.250771   4.078037   2.750050   2.304199
     8  N    4.536289   4.478544   5.173837   3.988467   3.564951
     9  O    4.761136   4.820122   5.408359   4.631794   4.397718
    10  O    5.458727   5.300487   5.997994   4.557907   3.975074
    11  O    3.746344   3.386863   4.236849   2.241775   1.397082
    12  N    3.948856   3.695323   4.477177   2.872604   2.340435
    13  O    3.263092   3.233275   4.040090   2.854119   2.530173
    14  O    5.098435   4.766767   5.437942   3.861952   3.363862
    15  H    2.194219   2.463159   3.612095   2.045036   1.069693
    16  H    4.304939   3.791133   4.461431   2.619573   2.148958
    17  H    4.346545   4.292745   5.264917   3.327528   2.142950
                    6          7          8          9         10
     6  C    0.000000
     7  O    1.416549   0.000000
     8  N    2.331343   1.339546   0.000000
     9  O    3.370893   2.099657   1.170543   0.000000
    10  O    2.502173   2.155874   1.183476   2.127860   0.000000
    11  O    2.287525   3.493355   4.605130   5.577091   4.721936
    12  N    3.560326   4.624439   5.827480   6.722909   6.032517
    13  O    3.977809   4.752807   6.050011   6.794509   6.460931
    14  O    4.375884   5.581120   6.701028   7.672108   6.749271
    15  H    2.179399   2.586800   3.868757   4.549246   4.426019
    16  H    1.077999   2.061293   2.631523   3.708916   2.512406
    17  H    1.077915   2.063638   2.644106   3.727194   2.518081
                   11         12         13         14         15
    11  O    0.000000
    12  N    1.355374   0.000000
    13  O    2.168626   1.180438   0.000000
    14  O    2.102967   1.167663   2.127172   0.000000
    15  H    2.054514   2.552961   2.338822   3.670442   0.000000
    16  H    2.533829   3.871738   4.476821   4.509839   3.061856
    17  H    2.553584   3.765004   4.271156   4.457244   2.520848
                   16         17
    16  H    0.000000
    17  H    1.769388   0.000000
 Stoichiometry    C2H3N3O9
 Framework group  C1[X(C2H3N3O9)]
 Deg. of freedom    45
 Full point group                 C1      NOp   1
 Largest Abelian subgroup         C1      NOp   1
 Largest concise Abelian subgroup C1      NOp   1
                         Standard orientation:                         
 ---------------------------------------------------------------------
 Center     Atomic      Atomic             Coordinates (Angstroms)
 Number     Number       Type             X           Y           Z
 ---------------------------------------------------------------------
      1          8           0       -0.473417    2.107764    1.012495
      2          7           0       -0.597081    1.992258   -0.154826
      3          8           0       -0.715067    2.820907   -0.969984
      4          8           0       -0.588782    0.746068   -0.692932
      5          6           0       -0.433716   -0.366015    0.155032
      6          6           0        0.879449   -1.064636   -0.132485
      7          8           0        1.854260   -0.106212    0.238700
      8          7           0        3.128245   -0.483514    0.068447
      9          8           0        3.901289    0.342136    0.369902
     10          8           0        3.319574   -1.573804   -0.350214
     11          8           0       -1.393201   -1.298408   -0.247301
     12          7           0       -2.671021   -1.052726    0.131980
     13          8           0       -2.864608   -0.102936    0.805669
     14          8           0       -3.423945   -1.843743   -0.281341
     15          1           0       -0.555765   -0.078642    1.178146
     16          1           0        0.962932   -1.307630   -1.179417
     17          1           0        0.968620   -1.956131    0.466836
[...]
 -1.338057,-4.9972295,0.1410196,4.2941965,-2.6144776,1.0798428,0.815838
 9,1.9832305,-1.0666301,-2.8201574,11.8080739,3.358425,2.0084917,2.6732
 634,0.2767752,-0.9444386,1.2774019,1.9457652,2.4575076,2.8928223,-0.33
 56889,0.586652,1.1206302,0.5095139,0.6125707,2.6192894,0.0989249,-0.75
 20738,2.3740485,-4.1111924,0.5686314,1.3051825,2.2516809,0.1199351,0.2
 761819,-0.897138,3.2699829,-0.667255,0.560073,-1.4517226,1.4685817,1.8
 68863,-0.1405693,-2.8084201,1.1683056,1.8659733,1.1151653,3.951874,-0.
 6091807,-0.7245727,-2.6411896,-0.0408457,-1.0040185,1.4922246,-3.15846
 07,0.2516229,-1.3489069,2.4256534,-2.8235157,-1.9653167,-0.6240559,2.0
 144374,-1.8358558,-2.5001502,-0.6264524,-9.1256209,0.8646359,-2.852279
 1,2.4911078,-1.0008105,-1.1763364,-0.3801011,0.7967751,-2.8713072,0.56
 98408,-0.8847692,0.1570505,1.9708913,-0.0103961,0.1684963,-0.9108061,-
 0.5650677,0.220815,4.3018379,-1.3818026,-0.8393506,-1.4795413,0.173961
 6,0.9613728,-0.6951712,1.0334164,1.9671547,0.6284319,0.0065694,-0.0026
 752,-1.5090292,0.8345617,0.5203299,-0.4508734,0.3120017,0.3678472,2.75
 74856,-4.0136365,1.5689125,-1.3531474,0.4113676,0.0746625,-2.8934635,1
 .369066,-12.3029943,0.6178841,-2.1817767,-0.9504457,-0.7182105,0.02460
 64,-1.3454221,1.4703866,-4.3785025,-2.8470435,6.9116366,2.6237778,2.90
 12914,-0.4514849,0.4722296,0.4891682,1.9605394,1.0024754,6.9202664,-0.
 7745469,0.8620236,0.6063472,0.0221362,-0.4598712,-0.0434951,2.3778376,
 2.3024833,-0.1092756,9.7491929,-2.4009541,3.4962272,-1.501944,1.114083
 5,0.4298904,-0.5539647,0.3559181,3.5823408,-0.0616378,-0.2032293,0.207
 9359,-0.6741958,0.058364,0.3235876,0.5501064,0.6044848,0.0419398,-5.26
 15245,2.7242794,0.8872797,1.0826151,-0.3413583,-0.0112406,1.2470872,-1
 .4003417,-2.1717797,-0.6096635,-0.1506149,-0.0797095,0.7549082,-0.8338
 181,-0.4685764,0.6463566,-0.4118641,-0.4411868,-6.4734102,-2.0445697,-
 2.8114851,-0.3790626,-0.5751556,-0.6259531,-1.1641555,-0.903434,-7.208
 0544,0.3583818,-0.8036949,-0.3746293,-0.2898638,0.4267575,-0.5165115,-
 2.2480407,-2.024329,-0.8279501,-2.1541282,4.3245623,-1.8682292,1.02334
 12,-0.3442395,-0.1211833,2.1862487,-1.0771664,14.1830269,-0.0101046,1.
 9756955,0.7679351,0.5264098,0.0087682,1.5527618,-1.0544973,4.6969674,2
 .2947495,-1.3921813,0.0312817,-1.0487357,-1.2177315,0.2640995,-0.74811
 74,-0.311624,-1.044973,-1.0476172,0.1470759,-0.4520092,-0.5299439,-1.4
 160812,0.0776259,-0.4874362,-0.95683,-0.5530846,-3.3645602,2.2543273,0
 .6196795,0.7801046,1.9842652,0.0692115,1.1219422,0.146194,1.2554918,1.
 4191854,0.3368401,1.2201951,1.1303299,2.0132685,0.2806416,0.8102206,1.
 592886,1.5577815,3.9395203,0.2203509,1.2938675,0.1302628,-1.0473904,-0
 .0993066,0.8501299,0.6025346,0.6185555,4.0578813,-0.1852704,-2.4296041
 ,1.7571053,-0.9124377,-0.1282471,-1.9730578,1.1897668,2.4311795,-4.011
 3245|HyperPolar=4.3551981,2.7502323,-1.6872295,4.2227546,-0.8918451,-2
 .2977676,-16.0999534,20.9435829,39.9906767,-21.7938678|Quadrupole=-4.5
 299781,-1.7990284,6.3290065,3.0865472,4.5078489,-2.5481384|PG=C01 [X(C
 2H3N3O9)]|NImag=0||0.16830181,0.12506967,0.18945543,0.22431927,0.16669
 570,0.76791428,-0.19782812,-0.07565679,-0.17229622,0.48177583,-0.07785
 262,-0.19917697,-0.14560804,0.19463885,0.62470717,-0.15890387,-0.12461
 643,-0.59362624,0.07470751,-0.11536020,1.40758699,0.04747510,0.0086517
 5,-0.01782367,-0.15477943,-0.05859722,0.08369406,0.11573865,0.00812624
 ,0.05187908,0.01469211,-0.06373779,-0.24841689,0.21185337,0.11334999,0
 .25574669,-0.01802946,0.01527187,-0.17427599,0.10304951,0.23742626,-0.
 63779338,-0.11480311,-0.29743683,0.81075966,-0.01536508,-0.05098324,-0
 .03737045,-0.11747619,-0.04546788,-0.03771294,-0.00808291,-0.04840940,
 0.02884126,0.22943614,-0.05372543,-0.03137252,-0.04572154,-0.04675960,
 -0.13768742,-0.00516245,-0.06050732,-0.06131821,0.04631428,0.18891129,
 0.40429863,-0.03825297,-0.04674675,0.00781082,-0.04081153,0.00036285,-
 0.18651031,0.05842342,0.07942148,-0.00665919,0.03751036,-0.12530368,0.
 46282263,0.00066047,-0.00198467,-0.00194343,-0.01049661,-0.00816856,0.
 04060603,-0.00087175,-0.01012104,0.00126275,-0.09695631,-0.02295640,-0
 .02866891,0.71836688,0.00543062,0.00307092,0.01064769,-0.03126010,-0.0
 5533509,0.02589952,0.00384235,0.00960339,-0.00557038,-0.01838413,-0.10
 040019,0.02792193,0.06835191,0.55850232,-0.01218389,-0.00840840,-0.021
 99121,0.05230249,0.03823794,0.03354418,-0.01310385,-0.01321110,0.00597
 269,-0.01726348,0.06230889,-0.23817557,0.08507309,0.08674913,0.6694420
 1,0.00054101,0.00105938,0.00058514,-0.00184385,-0.00440423,0.00026991,
 0.00079790,0.00224655,-0.00157078,-0.00183937,-0.00271583,0.00493720,-
 0.25168094,-0.02216556,0.02682700,0.64594400,-0.00043274,-0.00305777,-
 0.00283544,0.00039270,0.01062533,0.00769587,-0.00154360,-0.00451349,0.
 00138371,-0.02915087,-0.01790804,0.01665721,-0.01130425,-0.07164157,-0
 .00583565,0.04644548,0.60435114,0.00028540,-0.00154105,0.00229779,0.00
 067661,-0.00383053,-0.00891402,0.00057780,0.00300792,-0.00029234,0.040
 06178,0.02047808,-0.01562552,0.01097049,-0.00056522,-0.10500954,0.0399
 2459,-0.05124198,0.72661622,-0.00131082,-0.00124702,0.00134438,0.00406
 209,0.00507161,-0.00404566,-0.00101137,-0.00205314,0.00239502,-0.00217
 085,-0.00068224,0.00107423,-0.00590156,0.04822266,0.01291563,-0.104722
 26,0.01188128,0.00978675,0.47890019,0.00055376,0.00140291,0.00022905,-
 0.00174976,-0.00350657,0.00056449,0.00057490,0.00122690,-0.00083961,0.
 00006958,0.00326593,-0.00009124,0.00351877,-0.01160485,-0.00178296,-0.
 02666313,-0.24722676,-0.03787107,-0.05153995,0.51860283,0.00076918,0.0
 0089276,0.00043975,-0.00290186,-0.00232672,0.00015306,0.00049692,0.000
 47573,-0.00014306,0.00249193,-0.00123738,-0.00025235,0.00308740,-0.012
 24116,-0.00500441,-0.00182184,-0.04469586,-0.08704834,-0.09821870,0.11
 903672,0.13253348,0.00183305,0.00124001,-0.00235903,-0.00667134,-0.007
 23295,0.00723884,0.00157028,0.00306330,-0.00392371,0.00496118,0.001822
 24,-0.00268002,-0.00829763,-0.00029970,0.00285551,-0.02084815,0.053398
 94,0.01736860,-0.22147020,-0.00102198,0.02872771,0.80562182,-0.0013738
 1,-0.00284255,-0.00068166,0.00489059,0.00886796,-0.00099975,-0.0011226
 4,-0.00285362,0.00169994,-0.00513855,-0.00451588,0.00312789,0.00236400
 ,-0.00934735,-0.00652634,0.05906525,0.00314169,-0.01010185,-0.02944328
 ,-0.18366998,-0.01817897,0.11681810,1.34074014,-0.00088688,-0.00101363
 ,-0.00013815,0.00262999,0.00317879,-0.00061799,-0.00063276,-0.00095507
 ,0.00061206,-0.00214353,-0.00159124,0.00105318,0.00201697,-0.00219621,
 -0.00353580,0.01830417,-0.00872767,-0.01115801,0.02126611,-0.02438660,
 -0.09674835,-0.07400795,0.21043030,0.40219577,-0.00049648,-0.00053742,
 0.00050747,0.00175649,0.00243634,-0.00170010,-0.00048019,-0.00099231,0
 .00110306,-0.00128854,-0.00123830,0.00081882,0.00333625,0.00304960,-0.
 00093571,-0.00631556,-0.01336671,-0.00089404,-0.04128929,0.09967139,0.
 03825802,-0.18272689,0.08996141,0.03390020,0.18687136,0.00077491,0.001
 79875,0.00052245,-0.00296053,-0.00551431,0.00035834,0.00074764,0.00176
 533,-0.00103638,0.00267293,0.00322060,-0.00171962,-0.00372910,-0.00257
 075,0.00276667,0.00207981,0.00709809,-0.00023033,0.06046662,-0.0364426
 0,-0.02772747,0.12104117,-0.68549937,-0.15770908,-0.13048956,0.8684413
 6,0.00036721,0.00054555,0.00026204,-0.00122325,-0.00158406,-0.00009455
 ,0.00030393,0.00045259,-0.00018438,0.00094463,0.00094840,-0.00046537,-
 0.00156651,-0.00119510,0.00109722,0.00314518,0.00280425,0.00636750,0.0
 2861612,-0.03576611,0.01190391,0.04126973,-0.15094876,-0.16695564,-0.0
 6051720,0.21980848,0.11163482,-0.00062402,-0.00003737,0.00133470,0.002
 07477,0.00178186,-0.00334496,-0.00048595,-0.00095978,0.00157663,-0.001
 68174,-0.00009313,0.00098758,0.00263680,-0.00246995,-0.00155403,-0.002
 04366,-0.01754768,-0.00465046,-0.09866420,-0.04479123,0.01812998,-0.38
 893129,-0.23807811,0.00201917,0.04483310,-0.05418375,-0.01288913,0.448
 92230,0.00017817,0.00112720,0.00100758,-0.00083251,-0.00278562,-0.0015
 7276,0.00027489,0.00073853,0.00007299,0.00154692,0.00233619,-0.0011655
 9,0.00013190,0.00155061,0.00219269,0.00447848,-0.01167821,-0.00347012,
 -0.03622918,0.02473870,0.00559369,-0.26621014,-0.46198455,-0.02175258,
 -0.05329270,-0.15095305,-0.03378030,0.34914031,0.59194413,0.00021356,0
 .00032173,0.00004749,-0.00059519,-0.00090574,0.00016321,0.00016385,0.0
 0026947,-0.00017170,0.00025231,0.00045945,-0.00021367,0.00019469,0.000
 82453,0.00205250,0.00069604,0.00173757,-0.00360066,0.01971089,0.007402
 81,0.03111090,-0.00441769,-0.02808403,-0.12770337,-0.01277285,-0.03350
 724,0.03823501,-0.00569216,0.05232938,0.05945468,0.00364497,0.00217763
 ,0.00350935,-0.01384351,-0.01091666,-0.00332138,0.00327933,0.00351605,
 -0.00199424,0.01611491,0.01211962,-0.01116367,-0.12466821,-0.00103581,
 0.01430923,-0.00837352,0.04771664,0.01775291,-0.01958082,0.00463477,0.
 00510847,0.01013136,-0.00005397,-0.00222664,-0.00391584,0.00382563,0.0
 0179386,-0.00279204,-0.00059314,0.00041208,0.47389117,-0.00534441,-0.0
 0465115,-0.00128762,0.02387732,0.01049232,0.00133551,-0.00630013,-0.00
 566195,0.00546958,-0.01057225,-0.07006733,0.01938290,-0.02263855,-0.22
 233841,-0.07112138,0.00672733,-0.01302807,-0.00682144,0.00567931,-0.00
 029391,-0.00156520,-0.00533111,0.00004471,0.00148216,0.00144800,-0.000
 89507,-0.00060305,0.00186881,0.00075833,-0.00029495,-0.05297160,0.5293
 0420,0.00087295,-0.00084458,0.00527571,-0.00878519,-0.00120968,-0.0073
 0505,0.00191442,0.00053915,0.00055249,0.00115272,0.04114318,0.01110980
 ,-0.00570125,-0.06241295,-0.09591068,0.00211641,-0.01029869,-0.0028373
 5,0.00486596,-0.00135027,-0.00032169,-0.00337251,0.00054492,0.00111950
 ,0.00104098,-0.00103011,-0.00049445,0.00110861,0.00025589,-0.00012880,
 -0.03869748,0.10850172,0.12665841,-0.00907005,-0.00497708,-0.00449767,
 0.02565161,0.01412877,0.00295214,-0.00607822,-0.00605761,0.00443976,-0
 .01407578,-0.02615248,0.01293102,-0.01242637,0.08193083,0.00411516,-0.
 00487553,-0.00071987,-0.00180239,0.00995920,-0.00582651,-0.00333105,-0
 .00836108,0.00407296,0.00294765,0.00298625,-0.00397165,-0.00164141,0.0
 0251601,-0.00085072,-0.00079181,-0.20254897,-0.01588968,0.00122826,0.8
 0239966,-0.00160129,0.00272906,-0.00356909,0.00135229,-0.01381340,0.00
 909656,0.00074508,0.00316123,-0.00406560,-0.00552697,0.00507173,0.0029
 3224,0.06809807,-0.00393382,-0.00449508,0.00019389,-0.00838610,-0.0058
 1988,-0.00146543,0.00135014,0.00064145,0.00519620,-0.00135794,-0.00155
 500,-0.00128095,0.00081641,0.00050762,-0.00216159,-0.00025403,0.000491
 86,-0.02932754,-0.17795392,-0.01902603,0.12760249,1.33578893,-0.000779
 22,0.00067277,-0.00272151,-0.00007283,-0.00134492,0.00592762,0.0006718
 0,0.00065423,-0.00250430,-0.00150017,0.00355014,-0.00237290,0.01845928
 ,-0.00047045,-0.00505048,0.00005370,-0.00479794,-0.00052570,0.00040677
 ,0.00042316,0.00041083,0.00137272,-0.00098168,-0.00010673,-0.00030046,
 0.00035095,0.00002697,-0.00053373,0.00014915,0.00007738,-0.00186147,-0
 .02490589,-0.09095677,0.00688900,0.24980386,0.39734505,0.00372411,0.00
 144617,0.00218161,-0.00953742,-0.00485968,-0.00203635,0.00208031,0.001
 91678,-0.00114385,0.00324622,0.00867581,-0.00403114,-0.00298655,-0.023
 65212,0.00156921,0.00191542,-0.00088259,-0.00132319,-0.00290736,0.0020
 7899,0.00115420,0.00265592,-0.00174870,-0.00103705,-0.00096710,0.00150
 239,0.00057807,-0.00066452,0.00051707,0.00030347,-0.10391931,-0.034535
 19,-0.00159788,-0.41152179,-0.23993187,-0.04608950,0.48207434,0.003635
 11,-0.00160117,0.00312074,-0.00476094,0.00357818,-0.00605154,0.0006407
 2,-0.00032464,0.00137716,0.00670040,0.00119242,-0.00288926,-0.00222095
 ,-0.01526453,-0.00073834,0.00093406,0.00170975,0.00266857,-0.00043426,
 0.00059308,0.00014799,-0.00103153,-0.00007925,0.00020893,0.00014173,0.
 00021615,0.00001372,0.00061947,0.00027378,-0.00010254,-0.02830369,0.03
 169350,0.00048221,-0.26530128,-0.43436451,-0.06683291,0.34582673,0.554
 67525,0.00081861,-0.00013958,0.00166607,-0.00058296,-0.00146072,-0.003
 94563,-0.00036083,-0.00013576,0.00156015,-0.00204151,0.00208442,0.0010
 9558,0.00180457,-0.00213732,-0.00439870,0.00021987,0.00105687,0.001410
 50,-0.00010509,0.00002368,0.00001591,-0.00041095,0.00024832,0.00005115
 ,0.00009764,-0.00009814,-0.00000375,0.00018881,-0.00003383,-0.00004416
 ,0.00122702,0.00083677,0.03235333,-0.05443259,-0.06788121,-0.13502335,
 0.06614146,0.11253698,0.07226783,0.00169752,0.00117751,0.00055805,-0.0
 0528505,-0.00392365,0.00013437,0.00134255,0.00152708,-0.00129251,0.003
 28085,0.00582501,-0.00348559,-0.00877512,-0.01826971,0.00150049,0.0026
 2093,0.00285454,0.00034007,-0.00370185,0.00127963,0.00108918,0.0028709
 3,-0.00095304,-0.00087575,-0.00100702,0.00118198,0.00050766,-0.0008901
 0,0.00012310,0.00023862,-0.04045837,0.10532208,0.03008896,-0.17695979,
 0.07994153,0.02309622,0.04116258,-0.05990308,-0.01477121,0.18448187,0.
 00119246,-0.00162959,0.00242909,0.00006605,0.00603877,-0.00594159,-0.0
 0075175,-0.00176730,0.00274346,0.00047169,-0.00343058,0.00139532,0.002
 18485,0.01179192,-0.00161483,-0.00261525,-0.00216828,0.00117792,0.0040
 5347,-0.00096119,-0.00112890,-0.00421829,0.00059661,0.00108028,0.00127
 496,-0.00099803,-0.00052357,0.00157843,0.00026162,-0.00031693,0.061696
 20,-0.04800223,-0.02272807,0.11155491,-0.70953956,-0.15565081,-0.05931
 712,-0.14403201,-0.04569506,-0.11750861,0.89405435,0.00029251,-0.00048
 811,0.00076364,0.00058705,0.00211205,-0.00194571,-0.00042221,-0.000573
 91,0.00104415,0.00031769,-0.00290156,0.00067389,0.00102072,0.00261732,
 0.00509307,-0.00059204,-0.00020629,0.00007610,0.00093678,-0.00027128,-
 0.00030215,-0.00109178,0.00027385,0.00019942,0.00032771,-0.00029064,-0
 .00011617,0.00039808,0.00001539,-0.00005503,0.01842450,-0.02413985,0.0
 1909037,0.03243921,-0.15502975,-0.16348332,-0.01514497,-0.04495522,0.0
 3217162,-0.03721835,0.22349718,0.10649796,-0.00310995,-0.00486384,0.00
 173177,0.00156919,0.00080117,0.00047831,0.00007351,-0.00002606,-0.0007
 9162,0.00733610,0.00023189,0.00958423,-0.18079888,-0.06230265,-0.15057
 903,-0.01680997,-0.01122471,-0.02641859,0.00271186,-0.00090958,-0.0004
 9053,-0.00156540,-0.00065562,0.00040657,0.00028979,0.00009894,-0.00007
 725,0.00047332,0.00094653,0.00032619,0.01007238,0.01038317,0.01400098,
 0.00417301,-0.00089102,0.00039445,-0.00492936,0.00211482,0.00173109,-0
 .00058348,-0.00007135,-0.00039335,0.18445553,-0.00489809,-0.00792172,-
 0.00021530,0.00311132,0.00399040,0.00358150,-0.00030963,0.00008950,-0.
 00256397,0.01169945,0.00543732,0.02847615,-0.05739269,-0.09401176,-0.0
 8081189,-0.00068299,0.00332344,0.00218377,0.00060075,0.00033110,0.0003
 0199,-0.00043073,0.00066905,0.00033352,0.00011895,-0.00036718,-0.00013
 840,0.00020656,-0.00030629,-0.00019318,-0.01495056,-0.02962563,-0.0315
 4589,-0.00818647,-0.00072306,-0.00096197,0.00266803,0.00208336,0.00096
 974,0.00116979,0.00036541,0.00049857,0.06628571,0.11664431,0.00089447,
 -0.00128356,0.00600458,-0.00602498,-0.00593254,-0.00655386,0.00067929,
 0.00056790,0.00179948,-0.01508667,0.00347098,-0.03640405,-0.13210579,-
 0.07569870,-0.24440236,0.00648332,0.00466219,0.01456710,-0.00049739,0.
 00007730,0.00001443,-0.00037275,0.00130238,0.00054589,0.00016028,-0.00
 057649,-0.00018473,0.00025198,-0.00052942,-0.00041839,-0.00246014,-0.0
 0674635,0.00058496,-0.00190438,-0.00273269,-0.00136531,0.00044114,0.00
 163485,0.00113352,0.00013095,0.00158152,0.00037436,0.14700125,0.080815
 32,0.26453470,0.00033087,-0.00004371,0.00119035,-0.00049703,-0.0010316
 3,-0.00144157,0.00005149,0.00019038,0.00035063,0.00323252,0.00187120,-
 0.00033364,-0.02178298,-0.00926449,-0.03330731,-0.15810221,-0.04389535
 ,-0.13759564,0.00705468,0.00738535,0.01343722,0.00426466,-0.00035843,0
 .00068030,-0.00076685,0.00079804,-0.00038780,-0.00246932,0.00094019,0.
 00165717,0.00211135,-0.00137066,0.00007116,-0.00114723,-0.00097878,0.0
 0027147,0.00021272,0.00103621,0.00045239,0.00011347,0.00037957,0.00000
 568,-0.00451411,0.00097505,0.00341413,0.16572862,0.00017050,0.00042498
 ,0.00031491,-0.00051418,-0.00102963,-0.00027623,0.00017728,0.00023987,
 -0.00006160,0.00022405,0.00050428,-0.00089488,-0.00191563,0.00116180,0
 .00130988,-0.03525780,-0.07744535,-0.04979956,-0.01469482,-0.02700213,
 -0.03738189,-0.00824599,0.00025395,-0.00016904,0.00156864,-0.00046186,
 0.00051221,0.00271397,0.00147200,0.00028880,0.00080968,0.00030082,0.00
 027112,-0.00045338,0.00051077,0.00044062,0.00012759,-0.00025035,-0.000
 16987,0.00005852,-0.00027275,-0.00012845,0.00023757,0.00002533,-0.0006
 3474,0.04176654,0.09183203,0.00000252,0.00033439,-0.00019668,-0.000179
 68,-0.00022948,0.00050244,0.00003819,-0.00001040,-0.00015857,-0.000429
 86,-0.00024106,0.00137741,0.00786888,0.00396310,0.01107941,-0.13616945
 ,-0.05665139,-0.26422328,0.00137662,-0.01024000,-0.00388530,-0.0058138
 2,-0.00344701,-0.00029809,0.00098538,0.00106772,-0.00002102,0.00148912
 ,0.00263613,0.00113149,-0.00068530,0.00056135,0.00060590,-0.00027410,0
 .00082130,0.00021552,0.00042025,-0.00033436,-0.00022486,0.00000800,-0.
 00018008,-0.00003745,0.00255023,-0.00035832,-0.00069022,0.14497603,0.0
 6872405,0.27286283,-0.00040438,-0.00049097,-0.00097161,0.00136858,0.00
 359646,0.00242566,-0.00061929,-0.00157921,0.00053068,-0.00867116,-0.00
 462633,0.00316059,0.00064251,-0.02172375,0.02745948,-0.07436423,-0.032
 62121,0.03493932,0.00004254,0.01273500,-0.00598625,0.00496279,0.001753
 84,-0.00236058,-0.00081948,0.00014454,0.00077617,-0.00220946,-0.000269
 18,0.00010082,0.00085513,-0.00035243,-0.00030709,-0.00062093,0.0000358
 7,-0.00047802,0.00036181,0.00030645,0.00002368,0.00009006,0.00002978,0
 .00011279,0.00115645,0.00001554,-0.00100471,0.00617936,0.01322746,-0.0
 1616299,0.07204969,0.00009695,0.00036511,0.00025938,-0.00009696,-0.001
 03421,-0.00040422,0.00012768,0.00040559,-0.00018488,0.00133698,0.00137
 306,-0.00086695,-0.00221767,0.00076738,0.00098077,-0.02872542,-0.17319
 580,0.14177678,0.00181361,-0.04080362,0.01939324,-0.00855754,-0.002163
 62,0.00334214,0.00152693,0.00034553,-0.00105349,0.00241318,0.00276065,
 -0.00072099,0.00165676,-0.00007621,-0.00129191,-0.00090323,0.00089807,
 -0.00009831,0.00016771,-0.00009901,-0.00000528,0.00009733,-0.00030715,
 -0.00002930,-0.00015496,-0.00000358,0.00002206,0.00160052,0.00973625,-
 0.00641595,0.02981816,0.20103156,0.00020060,0.00034732,0.00046762,-0.0
 0047947,-0.00152525,-0.00057076,0.00018277,0.00038912,-0.00011775,0.00
 197594,0.00140108,0.00073562,-0.00237899,0.00386426,-0.00480232,0.0365
 9157,0.14929325,-0.25210043,-0.00182842,-0.01515806,0.01712341,-0.0003
 8290,0.00232245,0.00148519,-0.00007919,-0.00094912,-0.00100741,0.00117
 980,-0.00194828,0.00006312,-0.00012709,-0.00008424,0.00060434,0.000733
 19,-0.00012058,0.00010701,-0.00038547,-0.00028697,-0.00008522,-0.00004
 917,-0.00012493,-0.00004474,0.00054532,-0.00037165,0.00045990,0.006559
 44,0.01765467,-0.01803951,-0.04225792,-0.15470309,0.25572195||-0.00000
 604,-0.00000253,0.00000124,0.00001868,-0.00001937,0.00000225,-0.000005
 10,0.00001102,-0.00000213,0.00000235,-0.00001091,0.00000677,-0.0000135
 8,0.00002929,-0.00001381,0.00000301,-0.00002866,0.00000621,-0.00001317
 ,0.00000603,-0.00000012,0.00003920,0.00000423,-0.00000896,-0.00002039,
 0.00002033,0.00001236,-0.00000374,-0.00001365,0.00000090,0.00002529,-0
 .00000553,-0.00000508,-0.00005705,0.00000822,0.00002596,0.00000572,0.0
 0001984,-0.00000426,0.00002079,-0.00002166,-0.00001598,0.00000846,-0.0
 0000177,-0.00000134,0.00000317,-0.00000076,-0.00000616,-0.00000760,0.0
 0000587,0.00000216|||@
 The archive entry for this job was punched.


 SUCCESS IS NEVER CERTAIN,
 FAILURE IS NEVER FINAL.
 Job cpu time:       0 days  0 hours  0 minutes 39.0 seconds.
 Elapsed time:       0 days  0 hours  0 minutes 37.9 seconds.
 File lengths (MBytes):  RWF=    107 Int=      0 D2E=      0 Chk=      5 Scr=      1
 Normal termination of Gaussian 16 at Tue Jun 11 18:25:27 2024.
