 Entering Link 1 = C:\G16W\l1.exe PID=     11224.
  
 Copyright (c) 1988-2019, Gaussian, Inc.  All Rights Reserved.
  
 This is part of the Gaussian(R) 16 program.  It is based on
 the Gaussian(R) 09 system (copyright 2009, Gaussian, Inc.),
 the Gaussian(R) 03 system (copyright 2003, Gaussian, Inc.),
 the Gaussian(R) 98 system (copyright 1998, Gaussian, Inc.),
 the Gaussian(R) 94 system (copyright 1995, Gaussian, Inc.),
 the Gaussian 92(TM) system (copyright 1992, Gaussian, Inc.),
 the Gaussian 90(TM) system (copyright 1990, Gaussian, Inc.),
 the Gaussian 88(TM) system (copyright 1988, Gaussian, Inc.),
 the Gaussian 86(TM) system (copyright 1986, Carnegie Mellon
 University), and the Gaussian 82(TM) system (copyright 1983,
 Carnegie Mellon University). Gaussian is a federally registered
 trademark of Gaussian, Inc.
  
 This software contains proprietary and confidential information,
 including trade secrets, belonging to Gaussian, Inc.
  
 This software is provided under written license and may be
 used, copied, transmitted, or stored only in accord with that
 written license.
  
 The following legend is applicable only to US Government
 contracts under FAR:
  
                    RESTRICTED RIGHTS LEGEND
  
 Use, reproduction and disclosure by the US Government is
 subject to restrictions as set forth in subparagraphs (a)
 and (c) of the Commercial Computer Software - Restricted
 Rights clause in FAR 52.227-19.
  
 Gaussian, Inc.
 340 Quinnipiac St., Bldg. 40, Wallingford CT 06492
  
  
 ---------------------------------------------------------------
 Warning -- This program may not be used in any manner that
 competes with the business of Gaussian, Inc. or will provide
 assistance to any competitor of Gaussian, Inc.  The licensee
 of this program is prohibited from giving any competitor of
 Gaussian, Inc. access to this program.  By using this program,
 the user acknowledges that Gaussian, Inc. is engaged in the
 business of creating and licensing software in the field of
 computational chemistry and represents and warrants to the
 licensee that it is not a competitor of Gaussian, Inc. and that
 it will not use this program in any manner prohibited above.
 ---------------------------------------------------------------
  

 Cite this work as:
 Gaussian 16, Revision C.01,
 M. J. Frisch, G. W. Trucks, H. B. Schlegel, G. E. Scuseria, 
 M. A. Robb, J. R. Cheeseman, G. Scalmani, V. Barone, 
 G. A. Petersson, H. Nakatsuji, X. Li, M. Caricato, A. V. Marenich, 
 J. Bloino, B. G. Janesko, R. Gomperts, B. Mennucci, H. P. Hratchian, 
 J. V. Ortiz, A. F. Izmaylov, J. L. Sonnenberg, D. Williams-Young, 
 F. Ding, F. Lipparini, F. Egidi, J. Goings, B. Peng, A. Petrone, 
 T. Henderson, D. Ranasinghe, V. G. Zakrzewski, J. Gao, N. Rega, 
 G. Zheng, W. Liang, M. Hada, M. Ehara, K. Toyota, R. Fukuda, 
 J. Hasegawa, M. Ishida, T. Nakajima, Y. Honda, O. Kitao, H. Nakai, 
 T. Vreven, K. Throssell, J. A. Montgomery, Jr., J. E. Peralta, 
 F. Ogliaro, M. J. Bearpark, J. J. Heyd, E. N. Brothers, K. N. Kudin, 
 V. N. Staroverov, T. A. Keith, R. Kobayashi, J. Normand, 
 K. Raghavachari, A. P. Rendell, J. C. Burant, S. S. Iyengar, 
 J. Tomasi, M. Cossi, J. M. Millam, M. Klene, C. Adamo, R. Cammi, 
 J. W. Ochterski, R. L. Martin, K. Morokuma, O. Farkas, 
 J. B. Foresman, and D. J. Fox, Gaussian, Inc., Wallingford CT, 2019.
 
 ******************************************
 Gaussian 16:  EM64W-G16RevC.01 30-May-2019
                11-Jun-2024 
 ******************************************
 %nprocshared=24
 Will use up to   24 processors via shared memory.
 %mem=120GB
 ----------------------
 # HF/6-31G(d) Opt Freq
 ----------------------
 1/18=20,19=15,38=1/1,3;
 2/9=110,12=2,17=6,18=5,40=1/2;
 3/5=1,6=6,7=1,11=9,25=1,30=1,71=1/1,2,3;
 4//1;
 5/5=2,38=5/2;
 6/7=2,8=2,9=2,10=2,28=1/1;
 7//1,2,3,16;
 1/18=20,19=15/3(2);
 2/9=110/2;
 99//99;
 2/9=110/2;
 3/5=1,6=6,7=1,11=9,25=1,30=1,71=1/1,2,3;
 4/5=5,16=3,69=1/1;
 5/5=2,38=5/2;
 7//1,2,3,16;
 1/18=20,19=15/3(-5);
 2/9=110/2;
 6/7=2,8=2,9=2,10=2,19=2,28=1/1;
 99/9=1/99;
 ----------------------------------------------------------------------
 O=[N+1]([O-1])OC(CO[N+1]([O-1])=O)O[N+1]([O-1])[O-1] geometry optimiza
 tion
 ----------------------------------------------------------------------
 Symbolic Z-matrix:
 Charge =  0 Multiplicity = 1
 O                    -1.68676   3.37443  -0.20062 
 N                    -1.08855   2.39078   0.22554 
 O                    -0.35216   2.2735    1.20426 
 O                    -1.23617   1.26105  -0.60553 
 C                    -0.63288   0.08663  -0.06524 
 C                     0.84256   0.02959  -0.49774 
 O                     1.46451  -1.0888    0.13399 
 N                     2.82365  -1.23273  -0.23446 
 O                     3.3639   -2.19529   0.30333 
 O                     3.27578  -0.41047  -1.03177 
 O                    -1.25453  -1.06851  -0.66161 
 N                    -2.29074  -1.6027    0.21048 
 O                    -3.12646  -0.54072   0.65265 
 O                    -1.65596  -2.17627   1.34352 
 H                    -0.69236   0.02789   1.02995 
 H                     1.35833   0.95525  -0.21744 
 H                     0.88782  -0.08363  -1.5893 
 

 GradGradGradGradGradGradGradGradGradGradGradGradGradGradGradGradGradGrad
 Berny optimization.
 Initialization pass.
                           ----------------------------
                           !    Initial Parameters    !
                           ! (Angstroms and Degrees)  !
 --------------------------                            --------------------------
 ! Name  Definition              Value          Derivative Info.                !
 --------------------------------------------------------------------------------
 ! R1    R(1,2)                  1.2276         estimate D2E/DX2                !
 ! R2    R(2,3)                  1.2304         estimate D2E/DX2                !
 ! R3    R(2,4)                  1.4102         estimate D2E/DX2                !
 ! R4    R(4,5)                  1.4266         estimate D2E/DX2                !
 ! R5    R(5,6)                  1.5386         estimate D2E/DX2                !
 ! R6    R(5,11)                 1.441          estimate D2E/DX2                !
 ! R7    R(5,15)                 1.0984         estimate D2E/DX2                !
 ! R8    R(6,7)                  1.4271         estimate D2E/DX2                !
 ! R9    R(6,16)                 1.0961         estimate D2E/DX2                !
 ! R10   R(6,17)                 1.0983         estimate D2E/DX2                !
 ! R11   R(7,8)                  1.4155         estimate D2E/DX2                !
 ! R12   R(8,9)                  1.2279         estimate D2E/DX2                !
 ! R13   R(8,10)                 1.2314         estimate D2E/DX2                !
 ! R14   R(11,12)                1.4559         estimate D2E/DX2                !
 ! R15   R(12,13)                1.4219         estimate D2E/DX2                !
 ! R16   R(12,14)                1.4198         estimate D2E/DX2                !
 ! A1    A(1,2,3)              130.1012         estimate D2E/DX2                !
 ! A2    A(1,2,4)              112.7252         estimate D2E/DX2                !
 ! A3    A(3,2,4)              117.0687         estimate D2E/DX2                !
 ! A4    A(2,4,5)              113.0812         estimate D2E/DX2                !
 ! A5    A(4,5,6)              109.244          estimate D2E/DX2                !
 ! A6    A(4,5,11)             108.7084         estimate D2E/DX2                !
 ! A7    A(4,5,15)             113.5001         estimate D2E/DX2                !
 ! A8    A(6,5,11)             105.5243         estimate D2E/DX2                !
 ! A9    A(6,5,15)             109.2835         estimate D2E/DX2                !
 ! A10   A(11,5,15)            110.2693         estimate D2E/DX2                !
 ! A11   A(5,6,7)              108.8167         estimate D2E/DX2                !
 ! A12   A(5,6,16)             110.3676         estimate D2E/DX2                !
 ! A13   A(5,6,17)             108.8265         estimate D2E/DX2                !
 ! A14   A(7,6,16)             110.0922         estimate D2E/DX2                !
 ! A15   A(7,6,17)             109.9494         estimate D2E/DX2                !
 ! A16   A(16,6,17)            108.7724         estimate D2E/DX2                !
 ! A17   A(6,7,8)              112.5136         estimate D2E/DX2                !
 ! A18   A(7,8,9)              112.8408         estimate D2E/DX2                !
 ! A19   A(7,8,10)             116.949          estimate D2E/DX2                !
 ! A20   A(9,8,10)             130.2058         estimate D2E/DX2                !
 ! A21   A(5,11,12)            110.6878         estimate D2E/DX2                !
 ! A22   A(11,12,13)           109.3028         estimate D2E/DX2                !
 ! A23   A(11,12,14)           107.9419         estimate D2E/DX2                !
 ! A24   A(13,12,14)           108.4418         estimate D2E/DX2                !
 ! D1    D(1,2,3,4)           -175.9663         estimate D2E/DX2                !
 ! D2    D(1,2,4,5)           -175.3488         estimate D2E/DX2                !
 ! D3    D(3,2,4,5)              7.9955         estimate D2E/DX2                !
 ! D4    D(2,4,5,6)            -87.7413         estimate D2E/DX2                !
 ! D5    D(2,4,5,11)           157.5806         estimate D2E/DX2                !
 ! D6    D(2,4,5,15)            34.4817         estimate D2E/DX2                !
 ! D7    D(4,5,6,7)            175.3969         estimate D2E/DX2                !
 ! D8    D(4,5,6,16)            54.4905         estimate D2E/DX2                !
 ! D9    D(4,5,6,17)           -64.8009         estimate D2E/DX2                !
 ! D10   D(11,5,6,7)           -67.8869         estimate D2E/DX2                !
 ! D11   D(11,5,6,16)          171.2066         estimate D2E/DX2                !
 ! D12   D(11,5,6,17)           51.9152         estimate D2E/DX2                !
 ! D13   D(15,5,6,7)            50.6751         estimate D2E/DX2                !
 ! D14   D(15,5,6,16)          -70.2314         estimate D2E/DX2                !
 ! D15   D(15,5,6,17)          170.4772         estimate D2E/DX2                !
 ! D16   D(4,5,11,12)          -97.4327         estimate D2E/DX2                !
 ! D17   D(6,5,11,12)          145.4881         estimate D2E/DX2                !
 ! D18   D(15,5,11,12)          27.5862         estimate D2E/DX2                !
 ! D19   D(5,6,7,8)            178.7058         estimate D2E/DX2                !
 ! D20   D(16,6,7,8)           -60.2187         estimate D2E/DX2                !
 ! D21   D(17,6,7,8)            59.6035         estimate D2E/DX2                !
 ! D22   D(6,7,8,9)           -179.8375         estimate D2E/DX2                !
 ! D23   D(6,7,8,10)            -0.5238         estimate D2E/DX2                !
 ! D24   D(7,8,9,10)           179.199          estimate D2E/DX2                !
 ! D25   D(5,11,12,13)          48.0136         estimate D2E/DX2                !
 ! D26   D(5,11,12,14)         -69.7438         estimate D2E/DX2                !
 ! D27   D(11,12,13,14)       -117.4431         estimate D2E/DX2                !
 --------------------------------------------------------------------------------
 Trust Radius=3.00D-01 FncErr=1.00D-07 GrdErr=1.00D-07 EigMax=2.50D+02 EigMin=1.00D-04
 Number of steps in this run=     77 maximum allowed number of steps=    102.
 GradGradGradGradGradGradGradGradGradGradGradGradGradGradGradGradGradGrad

                          Input orientation:                          
 ---------------------------------------------------------------------
 Center     Atomic      Atomic             Coordinates (Angstroms)
 Number     Number       Type             X           Y           Z
 ---------------------------------------------------------------------
      1          8           0       -1.686756    3.374433   -0.200624
      2          7           0       -1.088553    2.390777    0.225537
      3          8           0       -0.352157    2.273504    1.204265
      4          8           0       -1.236167    1.261050   -0.605533
      5          6           0       -0.632878    0.086626   -0.065240
      6          6           0        0.842558    0.029585   -0.497743
      7          8           0        1.464513   -1.088800    0.133992
      8          7           0        2.823652   -1.232726   -0.234462
      9          8           0        3.363905   -2.195291    0.303326
     10          8           0        3.275778   -0.410472   -1.031773
     11          8           0       -1.254532   -1.068507   -0.661608
     12          7           0       -2.290736   -1.602700    0.210475
     13          8           0       -3.126455   -0.540724    0.652655
     14          8           0       -1.655956   -2.176273    1.343521
     15          1           0       -0.692363    0.027894    1.029952
     16          1           0        1.358332    0.955253   -0.217435
     17          1           0        0.887816   -0.083629   -1.589304
 ---------------------------------------------------------------------
                    Distance matrix (angstroms):
                    1          2          3          4          5
     1  O    0.000000
     2  N    1.227616   0.000000
     3  O    2.228657   1.230423   0.000000
     4  O    2.198493   1.410230   2.254308   0.000000
     5  C    3.455238   2.366707   2.544186   1.426586   0.000000
     6  C    4.204012   3.134892   3.059305   2.418517   1.538579
     7  O    5.473840   4.316710   3.968736   3.655457   2.412544
     8  N    6.447545   5.352263   4.944628   4.778990   3.703637
     9  O    7.535580   6.392374   5.881406   5.825202   4.617062
    10  O    6.296273   5.336216   5.036418   4.830457   4.056955
    11  O    4.487654   3.575083   3.932531   2.330304   1.440986
    12  N    5.030472   4.170531   4.446422   3.158963   2.382925
    13  O    4.257849   3.595717   3.990099   2.898727   2.669620
    14  O    5.761569   4.736009   4.638944   3.973691   2.855172
    15  H    3.701683   2.527304   2.277914   2.119246   1.098377
    16  H    3.889123   2.871271   2.585496   2.641128   2.177750
    17  H    4.529354   3.649981   3.859746   2.699495   2.159692
                    6          7          8          9         10
     6  C    0.000000
     7  O    1.427132   0.000000
     8  N    2.363785   1.415532   0.000000
     9  O    3.456729   2.204696   1.227852   0.000000
    10  O    2.529703   2.258277   1.231351   2.230657   0.000000
    11  O    2.372856   2.833125   4.103779   4.850845   4.592792
    12  N    3.603257   3.791021   5.147019   5.686365   5.826720
    13  O    4.171539   4.652568   6.055544   6.707041   6.621394
    14  O    3.807708   3.518933   4.842231   5.126536   5.751702
    15  H    2.165604   2.588797   3.943383   4.682291   4.493219
    16  H    1.096110   2.076759   2.633383   3.770867   2.490974
    17  H    1.098349   2.076704   2.627447   3.764596   2.473869
                   11         12         13         14         15
    11  O    0.000000
    12  N    1.455888   0.000000
    13  O    2.347325   1.421880   0.000000
    14  O    2.325688   1.419762   2.305360   0.000000
    15  H    2.092726   2.425938   2.527941   2.425941   0.000000
    16  H    3.334659   4.476821   4.807112   4.618330   2.573192
    17  H    2.533824   3.956005   4.620573   4.410374   3.061030
                   16         17
    16  H    0.000000
    17  H    1.784008   0.000000
 Stoichiometry    C2H3N3O9
 Framework group  C1[X(C2H3N3O9)]
 Deg. of freedom    45
 Full point group                 C1      NOp   1
 Largest Abelian subgroup         C1      NOp   1
 Largest concise Abelian subgroup C1      NOp   1
                         Standard orientation:                         
 ---------------------------------------------------------------------
 Center     Atomic      Atomic             Coordinates (Angstroms)
 Number     Number       Type             X           Y           Z
 ---------------------------------------------------------------------
      1          8           0        2.986689   -2.325896   -0.164281
      2          7           0        2.036726   -1.668338    0.250720
      3          8           0        1.424211   -1.745302    1.315071
      4          8           0        1.558107   -0.742896   -0.699664
      5          6           0        0.524065    0.097628   -0.190329
      6          6           0       -0.836215   -0.591964   -0.393622
      7          8           0       -1.851915    0.205457    0.213979
      8          7           0       -3.145353   -0.344944    0.047225
      9          8           0       -4.024420    0.338181    0.565104
     10          8           0       -3.226442   -1.397573   -0.586512
     11          8           0        0.470542    1.298132   -0.985544
     12          7           0        1.206578    2.375797   -0.340177
     13          8           0        2.480524    1.895286    0.069595
     14          8           0        0.481998    2.769402    0.815584
     15          1           0        0.647819    0.349781    0.871526
     16          1           0       -0.826683   -1.593324    0.052071
     17          1           0       -1.028249   -0.686382   -1.470923
 ---------------------------------------------------------------------
 Rotational constants (GHZ):           0.8517736           0.4543923           0.3275374
 Standard basis: 6-31G(d) (6D, 7F)
 There are   216 symmetry adapted cartesian basis functions of A   symmetry.
 There are   216 symmetry adapted basis functions of A   symmetry.
   216 basis functions,   404 primitive gaussians,   216 cartesian basis functions
    54 alpha electrons       54 beta electrons
       nuclear repulsion energy       971.3585973972 Hartrees.
 NAtoms=   17 NActive=   17 NUniq=   17 SFac= 1.00D+00 NAtFMM=   60 NAOKFM=F Big=F
 Integral buffers will be    131072 words long.
 Raffenetti 1 integral format.
 Two-electron integral symmetry is turned on.
 One-electron integrals computed using PRISM.
 NBasis=   216 RedAO= T EigKep=  2.43D-03  NBF=   216
 NBsUse=   216 1.00D-06 EigRej= -1.00D+00 NBFU=   216
 ExpMin= 1.61D-01 ExpMax= 5.48D+03 ExpMxC= 8.25D+02 IAcc=3 IRadAn=         5 AccDes= 0.00D+00
 Harris functional with IExCor=  205 and IRadAn=       5 diagonalized for initial guess.
 HarFok:  IExCor=  205 AccDes= 0.00D+00 IRadAn=         5 IDoV= 1 UseB2=F ITyADJ=14
 ICtDFT=  3500011 ScaDFX=  1.000000  1.000000  1.000000  1.000000
 FoFCou: FMM=F IPFlag=           0 FMFlag=      100000 FMFlg1=           0
         NFxFlg=           0 DoJE=T BraDBF=F KetDBF=T FulRan=T
         wScrn=  0.000000 ICntrl=       500 IOpCl=  0 I1Cent=   200000004 NGrid=           0
         NMat0=    1 NMatS0=      1 NMatT0=    0 NMatD0=    1 NMtDS0=    0 NMtDT0=    0
 Petite list used in FoFCou.
 Requested convergence on RMS density matrix=1.00D-08 within 128 cycles.
 Requested convergence on MAX density matrix=1.00D-06.
 Requested convergence on             energy=1.00D-06.
 No special actions if energy rises.
 Integral accuracy reduced to 1.0D-05 until final iterations.
 Initial convergence to 1.0D-05 achieved.  Increase integral accuracy.
 SCF Done:  E(RHF) =  -913.819509619     A.U. after   25 cycles
            NFock= 25  Conv=0.56D-08     -V/T= 2.0050

 **********************************************************************

            Population analysis using the SCF Density.

 **********************************************************************

 Orbital symmetries:
       Occupied  (A) (A) (A) (A) (A) (A) (A) (A) (A) (A) (A) (A)
                 (A) (A) (A) (A) (A) (A) (A) (A) (A) (A) (A) (A)
                 (A) (A) (A) (A) (A) (A) (A) (A) (A) (A) (A) (A)
                 (A) (A) (A) (A) (A) (A) (A) (A) (A) (A) (A) (A)
                 (A) (A) (A) (A) (A) (A)
       Virtual   (A) (A) (A) (A) (A) (A) (A) (A) (A) (A) (A) (A)
                 (A) (A) (A) (A) (A) (A) (A) (A) (A) (A) (A) (A)
                 (A) (A) (A) (A) (A) (A) (A) (A) (A) (A) (A) (A)
                 (A) (A) (A) (A) (A) (A) (A) (A) (A) (A) (A) (A)
                 (A) (A) (A) (A) (A) (A) (A) (A) (A) (A) (A) (A)
                 (A) (A) (A) (A) (A) (A) (A) (A) (A) (A) (A) (A)
                 (A) (A) (A) (A) (A) (A) (A) (A) (A) (A) (A) (A)
                 (A) (A) (A) (A) (A) (A) (A) (A) (A) (A) (A) (A)
                 (A) (A) (A) (A) (A) (A) (A) (A) (A) (A) (A) (A)
                 (A) (A) (A) (A) (A) (A) (A) (A) (A) (A) (A) (A)
                 (A) (A) (A) (A) (A) (A) (A) (A) (A) (A) (A) (A)
                 (A) (A) (A) (A) (A) (A) (A) (A) (A) (A) (A) (A)
                 (A) (A) (A) (A) (A) (A) (A) (A) (A) (A) (A) (A)
                 (A) (A) (A) (A) (A) (A)
 The electronic state is 1-A.
 Alpha  occ. eigenvalues --  -20.73670 -20.73441 -20.71513 -20.71000 -20.69767
 Alpha  occ. eigenvalues --  -20.68593 -20.68504 -20.66951 -20.66696 -15.98059
 Alpha  occ. eigenvalues --  -15.96184 -15.93929 -11.45316 -11.36689  -1.69901
 Alpha  occ. eigenvalues --   -1.67787  -1.58426  -1.49247  -1.47608  -1.46462
 Alpha  occ. eigenvalues --   -1.45748  -1.41717  -1.34717  -1.12905  -1.03147
 Alpha  occ. eigenvalues --   -0.99561  -0.93177  -0.90394  -0.85838  -0.82990
 Alpha  occ. eigenvalues --   -0.81715  -0.81024  -0.80085  -0.78354  -0.78111
 Alpha  occ. eigenvalues --   -0.75000  -0.74342  -0.69485  -0.68272  -0.66903
 Alpha  occ. eigenvalues --   -0.64425  -0.62967  -0.59679  -0.58425  -0.56941
 Alpha  occ. eigenvalues --   -0.56052  -0.55741  -0.55093  -0.54849  -0.54310
 Alpha  occ. eigenvalues --   -0.53239  -0.51459  -0.49933  -0.48012
 Alpha virt. eigenvalues --   -0.10651   0.04759   0.06552   0.16836   0.18707
 Alpha virt. eigenvalues --    0.21800   0.23726   0.25566   0.26787   0.28116
 Alpha virt. eigenvalues --    0.28777   0.29819   0.33776   0.36544   0.39922
 Alpha virt. eigenvalues --    0.43750   0.45229   0.55651   0.57253   0.66788
 Alpha virt. eigenvalues --    0.70760   0.72077   0.73420   0.74951   0.79209
 Alpha virt. eigenvalues --    0.79355   0.81380   0.82639   0.83418   0.83849
 Alpha virt. eigenvalues --    0.85290   0.86913   0.89413   0.89758   0.90275
 Alpha virt. eigenvalues --    0.98299   0.99028   1.01955   1.02533   1.03652
 Alpha virt. eigenvalues --    1.04873   1.05857   1.05986   1.07865   1.08873
 Alpha virt. eigenvalues --    1.11624   1.12111   1.13143   1.14619   1.17051
 Alpha virt. eigenvalues --    1.18076   1.18566   1.20245   1.21249   1.21929
 Alpha virt. eigenvalues --    1.23078   1.24094   1.24930   1.26216   1.27627
 Alpha virt. eigenvalues --    1.29772   1.30313   1.32001   1.35065   1.37933
 Alpha virt. eigenvalues --    1.39068   1.41657   1.45640   1.48543   1.51098
 Alpha virt. eigenvalues --    1.53736   1.55309   1.56502   1.59464   1.61903
 Alpha virt. eigenvalues --    1.63132   1.63979   1.68556   1.69054   1.71444
 Alpha virt. eigenvalues --    1.77433   1.82148   1.85405   1.86779   1.90375
 Alpha virt. eigenvalues --    1.95434   1.96080   1.96809   1.98886   2.01926
 Alpha virt. eigenvalues --    2.02767   2.03107   2.03648   2.04260   2.04702
 Alpha virt. eigenvalues --    2.05275   2.05343   2.09513   2.09997   2.11718
 Alpha virt. eigenvalues --    2.13913   2.14932   2.20113   2.22554   2.23154
 Alpha virt. eigenvalues --    2.24525   2.24994   2.25924   2.27023   2.29886
 Alpha virt. eigenvalues --    2.32145   2.33027   2.34069   2.36027   2.36952
 Alpha virt. eigenvalues --    2.37582   2.40993   2.42991   2.46719   2.50244
 Alpha virt. eigenvalues --    2.53899   2.59942   2.65188   2.70148   2.74650
 Alpha virt. eigenvalues --    2.77057   2.80631   2.82222   2.85040   2.90606
 Alpha virt. eigenvalues --    2.97375   2.99110   2.99691   2.99949   3.07968
 Alpha virt. eigenvalues --    3.09472   3.09788   3.12565   3.13525   3.15097
 Alpha virt. eigenvalues --    3.15553   3.16117   3.16937   3.26324   3.32870
 Alpha virt. eigenvalues --    3.35307   3.38898   3.41683   3.74239   3.90979
 Alpha virt. eigenvalues --    3.96312   4.05754   4.09247   4.16746   4.18318
 Alpha virt. eigenvalues --    4.20642   4.30194   4.32944   4.46753   4.57858
 Alpha virt. eigenvalues --    4.67707   4.89366
          Condensed to atoms (all electrons):
               1          2          3          4          5          6
     1  O    8.155197   0.376616  -0.074827  -0.082825   0.002448  -0.000088
     2  N    0.376616   5.243080   0.309545   0.196447  -0.026629  -0.000218
     3  O   -0.074827   0.309545   8.281864  -0.086932  -0.003397  -0.003580
     4  O   -0.082825   0.196447  -0.086932   8.427222   0.124114  -0.038734
     5  C    0.002448  -0.026629  -0.003397   0.124114   4.671268   0.346113
     6  C   -0.000088  -0.000218  -0.003580  -0.038734   0.346113   4.937821
     7  O    0.000000  -0.000028   0.000027   0.000782  -0.030083   0.128491
     8  N    0.000000  -0.000001   0.000001  -0.000008   0.002313  -0.036212
     9  O    0.000000   0.000000   0.000000   0.000000  -0.000066   0.003242
    10  O    0.000000   0.000000   0.000000   0.000001   0.000747   0.000242
    11  O   -0.000027   0.000994   0.000108  -0.027110   0.157833  -0.050882
    12  N    0.000002  -0.000009  -0.000002   0.002146  -0.036233   0.003786
    13  O   -0.000017   0.000477  -0.000052  -0.002987   0.005183   0.000708
    14  O    0.000000   0.000001   0.000000   0.000114  -0.003436  -0.001197
    15  H    0.000019  -0.002331   0.006054  -0.026812   0.390295  -0.039663
    16  H   -0.000043  -0.001050   0.004138   0.001461  -0.034394   0.393570
    17  H   -0.000010   0.000134   0.000182   0.000937  -0.027786   0.381815
               7          8          9         10         11         12
     1  O    0.000000   0.000000   0.000000   0.000000  -0.000027   0.000002
     2  N   -0.000028  -0.000001   0.000000   0.000000   0.000994  -0.000009
     3  O    0.000027   0.000001   0.000000   0.000000   0.000108  -0.000002
     4  O    0.000782  -0.000008   0.000000   0.000001  -0.027110   0.002146
     5  C   -0.030083   0.002313  -0.000066   0.000747   0.157833  -0.036233
     6  C    0.128491  -0.036212   0.003242   0.000242  -0.050882   0.003786
     7  O    8.407507   0.204497  -0.084147  -0.087337   0.003771  -0.000269
     8  N    0.204497   5.231940   0.376558   0.320909  -0.000049   0.000003
     9  O   -0.084147   0.376558   8.170975  -0.074319   0.000001   0.000000
    10  O   -0.087337   0.320909  -0.074319   8.267177  -0.000005   0.000000
    11  O    0.003771  -0.000049   0.000001  -0.000005   8.337608   0.143316
    12  N   -0.000269   0.000003   0.000000   0.000000   0.143316   6.010583
    13  O   -0.000001   0.000000   0.000000   0.000000  -0.047681   0.183196
    14  O    0.000360   0.000002   0.000000   0.000000  -0.052258   0.178034
    15  H    0.002978  -0.000158  -0.000002  -0.000003  -0.029166  -0.002999
    16  H   -0.027689  -0.002530   0.000014   0.002125   0.002195  -0.000052
    17  H   -0.029625  -0.003735  -0.000002   0.001683  -0.002183  -0.000077
              13         14         15         16         17
     1  O   -0.000017   0.000000   0.000019  -0.000043  -0.000010
     2  N    0.000477   0.000001  -0.002331  -0.001050   0.000134
     3  O   -0.000052   0.000000   0.006054   0.004138   0.000182
     4  O   -0.002987   0.000114  -0.026812   0.001461   0.000937
     5  C    0.005183  -0.003436   0.390295  -0.034394  -0.027786
     6  C    0.000708  -0.001197  -0.039663   0.393570   0.381815
     7  O   -0.000001   0.000360   0.002978  -0.027689  -0.029625
     8  N    0.000000   0.000002  -0.000158  -0.002530  -0.003735
     9  O    0.000000   0.000000  -0.000002   0.000014  -0.000002
    10  O    0.000000   0.000000  -0.000003   0.002125   0.001683
    11  O   -0.047681  -0.052258  -0.029166   0.002195  -0.002183
    12  N    0.183196   0.178034  -0.002999  -0.000052  -0.000077
    13  O    8.213999  -0.081579  -0.004172   0.000003  -0.000007
    14  O   -0.081579   8.178477   0.005953  -0.000004   0.000008
    15  H   -0.004172   0.005953   0.407746  -0.002352   0.003431
    16  H    0.000003  -0.000004  -0.002352   0.446125  -0.026266
    17  H   -0.000007   0.000008   0.003431  -0.026266   0.463842
 Mulliken charges:
               1
     1  O   -0.376445
     2  N    0.902972
     3  O   -0.433129
     4  O   -0.487814
     5  C    0.461710
     6  C   -0.025214
     7  O   -0.489234
     8  N    0.906470
     9  O   -0.392253
    10  O   -0.431220
    11  O   -0.436466
    12  N    0.518575
    13  O   -0.267070
    14  O   -0.224475
    15  H    0.291183
    16  H    0.244747
    17  H    0.237661
 Sum of Mulliken charges =   0.00000
 Mulliken charges with hydrogens summed into heavy atoms:
               1
     1  O   -0.376445
     2  N    0.902972
     3  O   -0.433129
     4  O   -0.487814
     5  C    0.752893
     6  C    0.457195
     7  O   -0.489234
     8  N    0.906470
     9  O   -0.392253
    10  O   -0.431220
    11  O   -0.436466
    12  N    0.518575
    13  O   -0.267070
    14  O   -0.224475
 Electronic spatial extent (au):  <R**2>=           3108.4002
 Charge=              0.0000 electrons
 Dipole moment (field-independent basis, Debye):
    X=              0.3442    Y=             -0.3502    Z=             -1.3112  Tot=              1.4002
 Quadrupole moment (field-independent basis, Debye-Ang):
   XX=            -98.1782   YY=            -83.3684   ZZ=            -78.1298
   XY=              2.8134   XZ=              1.3467   YZ=             -3.1899
 Traceless Quadrupole moment (field-independent basis, Debye-Ang):
   XX=            -11.6194   YY=              3.1904   ZZ=              8.4290
   XY=              2.8134   XZ=              1.3467   YZ=             -3.1899
 Octapole moment (field-independent basis, Debye-Ang**2):
  XXX=             29.9072  YYY=              5.1209  ZZZ=              0.0574  XYY=             -6.5808
  XXY=              9.8932  XXZ=              0.5205  XZZ=             -4.0611  YZZ=              3.7234
  YYZ=            -12.9560  XYZ=              2.9677
 Hexadecapole moment (field-independent basis, Debye-Ang**3):
 XXXX=          -2529.5830 YYYY=          -1158.0166 ZZZZ=           -226.5337 XXXY=             -7.4372
 XXXZ=             30.1991 YYYX=             16.4167 YYYZ=            -31.1310 ZZZX=             -2.5422
 ZZZY=              8.4847 XXYY=           -633.3855 XXZZ=           -410.9394 YYZZ=           -233.8764
 XXYZ=            -26.3977 YYXZ=            -22.9954 ZZXY=              5.5511
 N-N= 9.713585973972D+02 E-N=-4.094368187810D+03  KE= 9.092990737615D+02
 Calling FoFJK, ICntrl=      2127 FMM=F ISym2X=0 I1Cent= 0 IOpClX= 0 NMat=1 NMatS=1 NMatT=0.
 ***** Axes restored to original set *****
 -------------------------------------------------------------------
 Center     Atomic                   Forces (Hartrees/Bohr)
 Number     Number              X              Y              Z
 -------------------------------------------------------------------
      1        8           0.050053579   -0.084347447    0.039391918
      2        7          -0.003926094    0.036046219   -0.005514270
      3        8          -0.053001829    0.011678418   -0.063371023
      4        8           0.010522162    0.021757206    0.035189106
      5        6           0.014952016   -0.022528859    0.014734094
      6        6           0.000445699    0.009721153   -0.022510573
      7        8           0.043472665    0.001694626   -0.014738750
      8        7           0.016858690   -0.015852267    0.001660054
      9        8          -0.042308672    0.080448762   -0.044814976
     10        8          -0.027809677   -0.060006399    0.057656160
     11        8          -0.046135785   -0.018165326    0.022128366
     12        7           0.074312286    0.155675938    0.206552357
     13        8           0.050538810   -0.122280061   -0.079480830
     14        8          -0.070746185    0.012655057   -0.139447094
     15        1          -0.008172204    0.003174854   -0.019328033
     16        1          -0.009003810   -0.011070462   -0.001287386
     17        1          -0.000051652    0.001398586    0.013180881
 -------------------------------------------------------------------
 Cartesian Forces:  Max     0.206552357 RMS     0.057411898

 GradGradGradGradGradGradGradGradGradGradGradGradGradGradGradGradGradGrad
 Berny optimization.
 FormGI is forming the generalized inverse of G from B-inverse, IUseBI=4.
 Internal  Forces:  Max     0.148029584 RMS     0.039666972
 Search for a local minimum.
 Step number   1 out of a maximum of   77
 All quantities printed in internal units (Hartrees-Bohrs-Radians)
 Mixed Optimization -- RFO/linear search
 Second derivative matrix not updated -- first step.
 ITU=  0
     Eigenvalues ---    0.00256   0.00556   0.01089   0.01150   0.01159
     Eigenvalues ---    0.01333   0.01340   0.02906   0.02944   0.05183
     Eigenvalues ---    0.05627   0.05851   0.06874   0.07168   0.08931
     Eigenvalues ---    0.11169   0.13671   0.17862   0.19990   0.20148
     Eigenvalues ---    0.22030   0.24976   0.24999   0.25000   0.25000
     Eigenvalues ---    0.25000   0.25000   0.25000   0.25000   0.28645
     Eigenvalues ---    0.33862   0.33865   0.34116   0.37484   0.39451
     Eigenvalues ---    0.41404   0.41484   0.42179   0.42496   0.43140
     Eigenvalues ---    0.43966   0.90526   0.90910   0.91987   0.92087
 RFO step:  Lambda=-1.77628251D-01 EMin= 2.55622387D-03
 Linear search not attempted -- first point.
 Maximum step size (   0.300) exceeded in Quadratic search.
    -- Step size scaled by   0.594
 Iteration  1 RMS(Cart)=  0.05289751 RMS(Int)=  0.00477820
 Iteration  2 RMS(Cart)=  0.00559926 RMS(Int)=  0.00204080
 Iteration  3 RMS(Cart)=  0.00005472 RMS(Int)=  0.00204026
 Iteration  4 RMS(Cart)=  0.00000068 RMS(Int)=  0.00204026
 Variable       Old X    -DE/DX   Delta X   Delta X   Delta X     New X
                                 (Linear)    (Quad)   (Total)
    R1        2.31986  -0.10565   0.00000  -0.05718  -0.05718   2.26268
    R2        2.32516  -0.08324   0.00000  -0.04554  -0.04554   2.27962
    R3        2.66495  -0.04744   0.00000  -0.04569  -0.04569   2.61926
    R4        2.69586  -0.01594   0.00000  -0.01599  -0.01599   2.67986
    R5        2.90749  -0.01483   0.00000  -0.01899  -0.01899   2.88850
    R6        2.72307  -0.02983   0.00000  -0.03099  -0.03099   2.69207
    R7        2.07563  -0.01900   0.00000  -0.02188  -0.02188   2.05375
    R8        2.69689  -0.00930   0.00000  -0.00934  -0.00934   2.68755
    R9        2.07135  -0.01392   0.00000  -0.01595  -0.01595   2.05540
   R10        2.07558  -0.01325   0.00000  -0.01525  -0.01525   2.06033
   R11        2.67497  -0.05538   0.00000  -0.05406  -0.05406   2.62091
   R12        2.32030  -0.10131   0.00000  -0.05488  -0.05488   2.26543
   R13        2.32692  -0.08761   0.00000  -0.04810  -0.04810   2.27882
   R14        2.75123  -0.06282   0.00000  -0.06760  -0.06760   2.68363
   R15        2.68696  -0.14575   0.00000  -0.14455  -0.14455   2.54241
   R16        2.68296  -0.14803   0.00000  -0.14604  -0.14604   2.53692
    A1        2.27070  -0.00496   0.00000  -0.00680  -0.00681   2.26388
    A2        1.96743  -0.00101   0.00000  -0.00132  -0.00133   1.96609
    A3        2.04323   0.00617   0.00000   0.00867   0.00865   2.05189
    A4        1.97364   0.01368   0.00000   0.01902   0.01902   1.99266
    A5        1.90667   0.00046   0.00000   0.00016   0.00014   1.90681
    A6        1.89732  -0.00832   0.00000  -0.01789  -0.01793   1.87939
    A7        1.98095  -0.00226   0.00000  -0.00496  -0.00508   1.97587
    A8        1.84175   0.00228   0.00000   0.00300   0.00296   1.84470
    A9        1.90736   0.00882   0.00000   0.02123   0.02120   1.92856
   A10        1.92456  -0.00070   0.00000  -0.00110  -0.00127   1.92329
   A11        1.89921  -0.01786   0.00000  -0.02745  -0.02746   1.87175
   A12        1.92628   0.00045   0.00000  -0.00168  -0.00171   1.92457
   A13        1.89938   0.00586   0.00000   0.00955   0.00959   1.90897
   A14        1.92147   0.00672   0.00000   0.00930   0.00915   1.93063
   A15        1.91898   0.00552   0.00000   0.00859   0.00862   1.92760
   A16        1.89844  -0.00056   0.00000   0.00188   0.00183   1.90026
   A17        1.96373   0.00754   0.00000   0.01049   0.01049   1.97422
   A18        1.96944   0.00011   0.00000   0.00016   0.00016   1.96960
   A19        2.04115   0.00529   0.00000   0.00736   0.00736   2.04850
   A20        2.27252  -0.00539   0.00000  -0.00748  -0.00748   2.26504
   A21        1.93187   0.00140   0.00000   0.00194   0.00194   1.93381
   A22        1.90769   0.03932   0.00000   0.07546   0.06846   1.97615
   A23        1.88394  -0.00083   0.00000   0.02923   0.01820   1.90214
   A24        1.89267   0.06340   0.00000   0.12400   0.11721   2.00988
    D1       -3.07119  -0.00376   0.00000  -0.01068  -0.01067  -3.08186
    D2       -3.06041   0.00109   0.00000   0.00314   0.00315  -3.05726
    D3        0.13955  -0.00181   0.00000  -0.00541  -0.00543   0.13412
    D4       -1.53137  -0.00649   0.00000  -0.01807  -0.01803  -1.54941
    D5        2.75030  -0.00494   0.00000  -0.01206  -0.01203   2.73827
    D6        0.60182   0.00367   0.00000   0.00600   0.00593   0.60775
    D7        3.06125   0.00304   0.00000   0.00668   0.00675   3.06801
    D8        0.95104   0.00585   0.00000   0.01373   0.01372   0.96476
    D9       -1.13099   0.00266   0.00000   0.00654   0.00655  -1.12444
   D10       -1.18485  -0.00523   0.00000  -0.01251  -0.01249  -1.19734
   D11        2.98812  -0.00242   0.00000  -0.00546  -0.00553   2.98259
   D12        0.90609  -0.00561   0.00000  -0.01264  -0.01269   0.89340
   D13        0.88445  -0.00033   0.00000  -0.00139  -0.00133   0.88312
   D14       -1.22577   0.00248   0.00000   0.00566   0.00564  -1.22013
   D15        2.97539  -0.00071   0.00000  -0.00152  -0.00153   2.97386
   D16       -1.70052   0.00319   0.00000   0.00711   0.00708  -1.69344
   D17        2.53925   0.00551   0.00000   0.01403   0.01401   2.55326
   D18        0.48147  -0.00585   0.00000  -0.01220  -0.01216   0.46931
   D19        3.11900   0.00222   0.00000   0.00509   0.00510   3.12411
   D20       -1.05102  -0.00437   0.00000  -0.00859  -0.00866  -1.05968
   D21        1.04028   0.00262   0.00000   0.00498   0.00504   1.04531
   D22       -3.13876  -0.00041   0.00000  -0.00121  -0.00122  -3.13998
   D23       -0.00914   0.00061   0.00000   0.00183   0.00184  -0.00730
   D24        3.12761   0.00130   0.00000   0.00369   0.00368   3.13129
   D25        0.83800   0.04611   0.00000   0.09553   0.09544   0.93343
   D26       -1.21726  -0.05075   0.00000  -0.11058  -0.11049  -1.32775
   D27       -2.04977  -0.05693   0.00000  -0.14749  -0.15536  -2.20513
         Item               Value     Threshold  Converged?
 Maximum Force            0.148030     0.000450     NO 
 RMS     Force            0.039667     0.000300     NO 
 Maximum Displacement     0.176242     0.001800     NO 
 RMS     Displacement     0.052708     0.001200     NO 
 Predicted change in Energy=-8.628368D-02
 GradGradGradGradGradGradGradGradGradGradGradGradGradGradGradGradGradGrad

                          Input orientation:                          
 ---------------------------------------------------------------------
 Center     Atomic      Atomic             Coordinates (Angstroms)
 Number     Number       Type             X           Y           Z
 ---------------------------------------------------------------------
      1          8           0       -1.702520    3.327512   -0.210396
      2          7           0       -1.092746    2.391044    0.219572
      3          8           0       -0.367414    2.319213    1.180798
      4          8           0       -1.221547    1.261006   -0.572621
      5          6           0       -0.601471    0.103187   -0.037802
      6          6           0        0.852245    0.047753   -0.506883
      7          8           0        1.458576   -1.069709    0.130507
      8          7           0        2.785975   -1.247918   -0.229794
      9          8           0        3.291802   -2.191985    0.308745
     10          8           0        3.255427   -0.467613   -1.020317
     11          8           0       -1.236421   -1.033688   -0.615552
     12          7           0       -2.237687   -1.546750    0.251029
     13          8           0       -3.131347   -0.618312    0.637596
     14          8           0       -1.646790   -2.221017    1.250258
     15          1           0       -0.653716    0.051489    1.046510
     16          1           0        1.369195    0.967140   -0.241330
     17          1           0        0.878439   -0.071353   -1.590319
 ---------------------------------------------------------------------
                    Distance matrix (angstroms):
                    1          2          3          4          5
     1  O    0.000000
     2  N    1.197359   0.000000
     3  O    2.175912   1.206325   0.000000
     4  O    2.152437   1.386054   2.218969   0.000000
     5  C    3.411505   2.354121   2.539791   1.418123   0.000000
     6  C    4.167919   3.130773   3.081455   2.403523   1.528529
     7  O    5.426259   4.300463   3.990256   3.620729   2.376511
     8  N    6.409487   5.337457   4.965688   4.740513   3.652004
     9  O    7.461743   6.343215   5.873776   5.750677   4.532713
    10  O    6.296045   5.349379   5.073094   4.819943   4.020797
    11  O    4.404709   3.528011   3.901793   2.295144   1.424584
    12  N    4.925215   4.100988   4.394094   3.097489   2.341563
    13  O    4.281373   3.658806   4.069821   2.940033   2.716062
    14  O    5.737838   4.758192   4.717554   3.953252   2.855470
    15  H    3.662257   2.519939   2.289667   2.099273   1.086799
    16  H    3.873983   2.881160   2.620374   2.628318   2.161334
    17  H    4.485289   3.636574   3.866011   2.687161   2.151954
                    6          7          8          9         10
     6  C    0.000000
     7  O    1.422189   0.000000
     8  N    2.344110   1.386926   0.000000
     9  O    3.410735   2.156848   1.198811   0.000000
    10  O    2.510876   2.217113   1.205898   2.177428   0.000000
    11  O    2.354538   2.796589   4.046526   4.764534   4.545434
    12  N    3.558729   3.728868   5.055460   5.567308   5.740659
    13  O    4.197914   4.639859   6.013607   6.621287   6.600172
    14  O    3.805264   3.496091   4.773561   5.027622   5.679936
    15  H    2.163553   2.560844   3.892157   4.598324   4.452262
    16  H    1.087671   2.072439   2.629426   3.738860   2.494636
    17  H    1.090278   2.072321   2.621836   3.732003   2.476287
                   11         12         13         14         15
    11  O    0.000000
    12  N    1.420117   0.000000
    13  O    2.309473   1.345385   0.000000
    14  O    2.249311   1.342480   2.268905   0.000000
    15  H    2.068720   2.386655   2.598942   2.488371   0.000000
    16  H    3.306446   4.423987   4.851912   4.635229   2.566928
    17  H    2.519700   3.908657   4.619649   4.366544   3.052123
                   16         17
    16  H    0.000000
    17  H    1.771745   0.000000
 Stoichiometry    C2H3N3O9
 Framework group  C1[X(C2H3N3O9)]
 Deg. of freedom    45
 Full point group                 C1      NOp   1
 Largest Abelian subgroup         C1      NOp   1
 Largest concise Abelian subgroup C1      NOp   1
                         Standard orientation:                         
 ---------------------------------------------------------------------
 Center     Atomic      Atomic             Coordinates (Angstroms)
 Number     Number       Type             X           Y           Z
 ---------------------------------------------------------------------
      1          8           0        3.004937   -2.245985   -0.188167
      2          7           0        2.060141   -1.647429    0.239337
      3          8           0        1.479622   -1.771965    1.289436
      4          8           0        1.555925   -0.728131   -0.667196
      5          6           0        0.504687    0.074809   -0.156063
      6          6           0       -0.830514   -0.628461   -0.399066
      7          8           0       -1.841113    0.161878    0.214673
      8          7           0       -3.115799   -0.358511    0.047535
      9          8           0       -3.963987    0.312194    0.565106
     10          8           0       -3.218865   -1.380981   -0.583433
     11          8           0        0.457314    1.269760   -0.930201
     12          7           0        1.159503    2.319487   -0.280790
     13          8           0        2.420835    1.988646    0.050335
     14          8           0        0.408686    2.788071    0.728644
     15          1           0        0.622314    0.314637    0.897398
     16          1           0       -0.813279   -1.628136    0.029166
     17          1           0       -1.007820   -0.707307   -1.471937
 ---------------------------------------------------------------------
 Rotational constants (GHZ):           0.8660925           0.4628479           0.3313383
 Standard basis: 6-31G(d) (6D, 7F)
 There are   216 symmetry adapted cartesian basis functions of A   symmetry.
 There are   216 symmetry adapted basis functions of A   symmetry.
   216 basis functions,   404 primitive gaussians,   216 cartesian basis functions
    54 alpha electrons       54 beta electrons
       nuclear repulsion energy       983.9177120252 Hartrees.
 NAtoms=   17 NActive=   17 NUniq=   17 SFac= 1.00D+00 NAtFMM=   60 NAOKFM=F Big=F
 Integral buffers will be    131072 words long.
 Raffenetti 1 integral format.
 Two-electron integral symmetry is turned on.
 One-electron integrals computed using PRISM.
 NBasis=   216 RedAO= T EigKep=  2.25D-03  NBF=   216
 NBsUse=   216 1.00D-06 EigRej= -1.00D+00 NBFU=   216
 Initial guess from the checkpoint file:  "C:\g16w\Scratch\Gau-11224.chk"
 B after Tr=     0.000000    0.000000    0.000000
         Rot=    0.999979   -0.000340   -0.000988   -0.006363 Ang=  -0.74 deg.
 ExpMin= 1.61D-01 ExpMax= 5.48D+03 ExpMxC= 8.25D+02 IAcc=3 IRadAn=         5 AccDes= 0.00D+00
 Harris functional with IExCor=  205 and IRadAn=       5 diagonalized for initial guess.
 HarFok:  IExCor=  205 AccDes= 0.00D+00 IRadAn=         5 IDoV= 1 UseB2=F ITyADJ=14
 ICtDFT=  3500011 ScaDFX=  1.000000  1.000000  1.000000  1.000000
 FoFCou: FMM=F IPFlag=           0 FMFlag=      100000 FMFlg1=           0
         NFxFlg=           0 DoJE=T BraDBF=F KetDBF=T FulRan=T
         wScrn=  0.000000 ICntrl=       500 IOpCl=  0 I1Cent=   200000004 NGrid=           0
         NMat0=    1 NMatS0=      1 NMatT0=    0 NMatD0=    1 NMtDS0=    0 NMtDT0=    0
 Petite list used in FoFCou.
 Requested convergence on RMS density matrix=1.00D-08 within 128 cycles.
 Requested convergence on MAX density matrix=1.00D-06.
 Requested convergence on             energy=1.00D-06.
 No special actions if energy rises.
 Integral accuracy reduced to 1.0D-05 until final iterations.
 Initial convergence to 1.0D-05 achieved.  Increase integral accuracy.
 SCF Done:  E(RHF) =  -913.916250865     A.U. after   20 cycles
            NFock= 20  Conv=0.69D-08     -V/T= 2.0041
 Calling FoFJK, ICntrl=      2127 FMM=F ISym2X=0 I1Cent= 0 IOpClX= 0 NMat=1 NMatS=1 NMatT=0.
 ***** Axes restored to original set *****
 -------------------------------------------------------------------
 Center     Atomic                   Forces (Hartrees/Bohr)
 Number     Number              X              Y              Z
 -------------------------------------------------------------------
      1        8           0.028463660   -0.045676536    0.023360689
      2        7          -0.005576104    0.020991925   -0.009960348
      3        8          -0.028609767    0.002710929   -0.033085285
      4        8           0.006651495    0.014364495    0.023618717
      5        6           0.011545825   -0.016233702    0.007905697
      6        6          -0.001978198    0.005915757   -0.014931209
      7        8           0.029486904    0.002799429   -0.011250467
      8        7           0.003996337   -0.012767924    0.005081508
      9        8          -0.021275180    0.044217692   -0.025129775
     10        8          -0.016128715   -0.030174295    0.030938764
     11        8          -0.041499102   -0.018022085    0.005309604
     12        7           0.056307894    0.118152701    0.205699928
     13        8           0.065074612   -0.113402324   -0.075516511
     14        8          -0.075504112    0.029964697   -0.130019235
     15        1          -0.005669465    0.003104549   -0.010477693
     16        1          -0.005092293   -0.006328944    0.000554019
     17        1          -0.000193792    0.000383636    0.007901596
 -------------------------------------------------------------------
 Cartesian Forces:  Max     0.205699928 RMS     0.048897498

 GradGradGradGradGradGradGradGradGradGradGradGradGradGradGradGradGradGrad
 Berny optimization.
 Using GEDIIS/GDIIS optimizer.
 FormGI is forming the generalized inverse of G from B-inverse, IUseBI=4.
 Internal  Forces:  Max     0.145058602 RMS     0.031597902
 Search for a local minimum.
 Step number   2 out of a maximum of   77
 All quantities printed in internal units (Hartrees-Bohrs-Radians)
 Mixed Optimization -- RFO/linear search
 Update second derivatives using D2CorX and points    1    2
 DE= -9.67D-02 DEPred=-8.63D-02 R= 1.12D+00
 TightC=F SS=  1.41D+00  RLast= 3.66D-01 DXNew= 5.0454D-01 1.0969D+00
 Trust test= 1.12D+00 RLast= 3.66D-01 DXMaxT set to 5.05D-01
 ITU=  1  0
 Use linear search instead of GDIIS.
 Linear search step of   0.589 exceeds DXMaxT=   0.505 but not scaled.
 Quartic linear search produced a step of  2.00000.
 Iteration  1 RMS(Cart)=  0.09234775 RMS(Int)=  0.02704476
 Iteration  2 RMS(Cart)=  0.02422605 RMS(Int)=  0.01115479
 Iteration  3 RMS(Cart)=  0.00060163 RMS(Int)=  0.01114301
 Iteration  4 RMS(Cart)=  0.00002133 RMS(Int)=  0.01114300
 Iteration  5 RMS(Cart)=  0.00000081 RMS(Int)=  0.01114300
 Variable       Old X    -DE/DX   Delta X   Delta X   Delta X     New X
                                 (Linear)    (Quad)   (Total)
    R1        2.26268  -0.05861  -0.11435   0.00000  -0.11435   2.14833
    R2        2.27962  -0.04373  -0.09107   0.00000  -0.09107   2.18855
    R3        2.61926  -0.02970  -0.09137   0.00000  -0.09137   2.52789
    R4        2.67986  -0.00810  -0.03198   0.00000  -0.03198   2.64788
    R5        2.88850  -0.00869  -0.03798   0.00000  -0.03798   2.85052
    R6        2.69207  -0.01749  -0.06199   0.00000  -0.06199   2.63009
    R7        2.05375  -0.01033  -0.04376   0.00000  -0.04376   2.01000
    R8        2.68755  -0.00503  -0.01868   0.00000  -0.01868   2.66887
    R9        2.05540  -0.00763  -0.03189   0.00000  -0.03189   2.02351
   R10        2.06033  -0.00790  -0.03050   0.00000  -0.03050   2.02982
   R11        2.62091  -0.03497  -0.10811   0.00000  -0.10811   2.51280
   R12        2.26543  -0.05509  -0.10976   0.00000  -0.10976   2.15567
   R13        2.27882  -0.04609  -0.09620   0.00000  -0.09620   2.18262
   R14        2.68363  -0.04479  -0.13519   0.00000  -0.13519   2.54844
   R15        2.54241  -0.14318  -0.28911   0.00000  -0.28911   2.25330
   R16        2.53692  -0.14506  -0.29208   0.00000  -0.29208   2.24484
    A1        2.26388  -0.00165  -0.01362   0.00000  -0.01371   2.25018
    A2        1.96609   0.00136  -0.00266   0.00000  -0.00274   1.96335
    A3        2.05189   0.00044   0.01731   0.00000   0.01722   2.06911
    A4        1.99266   0.01034   0.03804   0.00000   0.03804   2.03070
    A5        1.90681   0.00097   0.00028   0.00000   0.00015   1.90696
    A6        1.87939  -0.00643  -0.03586   0.00000  -0.03606   1.84334
    A7        1.97587  -0.00230  -0.01016   0.00000  -0.01086   1.96501
    A8        1.84470   0.00240   0.00591   0.00000   0.00560   1.85030
    A9        1.92856   0.00571   0.04240   0.00000   0.04218   1.97074
   A10        1.92329  -0.00032  -0.00254   0.00000  -0.00357   1.91972
   A11        1.87175  -0.01048  -0.05493   0.00000  -0.05500   1.81674
   A12        1.92457  -0.00007  -0.00342   0.00000  -0.00357   1.92100
   A13        1.90897   0.00340   0.01919   0.00000   0.01942   1.92839
   A14        1.93063   0.00349   0.01831   0.00000   0.01744   1.94807
   A15        1.92760   0.00337   0.01725   0.00000   0.01742   1.94503
   A16        1.90026   0.00025   0.00366   0.00000   0.00333   1.90360
   A17        1.97422   0.00905   0.02097   0.00000   0.02097   1.99520
   A18        1.96960   0.00172   0.00032   0.00000   0.00031   1.96991
   A19        2.04850   0.00118   0.01472   0.00000   0.01471   2.06321
   A20        2.26504  -0.00289  -0.01496   0.00000  -0.01497   2.25007
   A21        1.93381  -0.00004   0.00388   0.00000   0.00388   1.93769
   A22        1.97615   0.01904   0.13691   0.00000   0.08990   2.06605
   A23        1.90214   0.00290   0.03640   0.00000  -0.01916   1.88298
   A24        2.00988   0.04580   0.23442   0.00000   0.19368   2.20355
    D1       -3.08186  -0.00328  -0.02133   0.00000  -0.02125  -3.10310
    D2       -3.05726   0.00094   0.00631   0.00000   0.00641  -3.05085
    D3        0.13412  -0.00169  -0.01086   0.00000  -0.01096   0.12315
    D4       -1.54941  -0.00434  -0.03606   0.00000  -0.03583  -1.58524
    D5        2.73827  -0.00426  -0.02405   0.00000  -0.02384   2.71443
    D6        0.60775   0.00217   0.01187   0.00000   0.01142   0.61918
    D7        3.06801   0.00175   0.01350   0.00000   0.01396   3.08196
    D8        0.96476   0.00397   0.02744   0.00000   0.02737   0.99213
    D9       -1.12444   0.00158   0.01311   0.00000   0.01317  -1.11127
   D10       -1.19734  -0.00400  -0.02499   0.00000  -0.02490  -1.22224
   D11        2.98259  -0.00178  -0.01106   0.00000  -0.01149   2.97110
   D12        0.89340  -0.00417  -0.02539   0.00000  -0.02569   0.86771
   D13        0.88312   0.00005  -0.00265   0.00000  -0.00229   0.88083
   D14       -1.22013   0.00227   0.01128   0.00000   0.01112  -1.20901
   D15        2.97386  -0.00012  -0.00305   0.00000  -0.00308   2.97079
   D16       -1.69344   0.00323   0.01416   0.00000   0.01399  -1.67946
   D17        2.55326   0.00397   0.02802   0.00000   0.02791   2.58116
   D18        0.46931  -0.00405  -0.02431   0.00000  -0.02402   0.44529
   D19        3.12411   0.00152   0.01021   0.00000   0.01027   3.13438
   D20       -1.05968  -0.00301  -0.01732   0.00000  -0.01772  -1.07740
   D21        1.04531   0.00181   0.01008   0.00000   0.01041   1.05572
   D22       -3.13998  -0.00038  -0.00244   0.00000  -0.00251   3.14070
   D23       -0.00730   0.00052   0.00368   0.00000   0.00375  -0.00355
   D24        3.13129   0.00107   0.00735   0.00000   0.00729   3.13858
   D25        0.93343   0.03726   0.19087   0.00000   0.17831   1.11175
   D26       -1.32775  -0.04230  -0.22098   0.00000  -0.20842  -1.53617
   D27       -2.20513  -0.06143  -0.31072   0.00000  -0.34300  -2.54813
         Item               Value     Threshold  Converged?
 Maximum Force            0.145059     0.000450     NO 
 RMS     Force            0.031598     0.000300     NO 
 Maximum Displacement     0.394131     0.001800     NO 
 RMS     Displacement     0.103184     0.001200     NO 
 Predicted change in Energy=-1.346527D-01
 GradGradGradGradGradGradGradGradGradGradGradGradGradGradGradGradGradGrad

                          Input orientation:                          
 ---------------------------------------------------------------------
 Center     Atomic      Atomic             Coordinates (Angstroms)
 Number     Number       Type             X           Y           Z
 ---------------------------------------------------------------------
      1          8           0       -1.737838    3.220284   -0.218975
      2          7           0       -1.108914    2.377226    0.212447
      3          8           0       -0.409695    2.390009    1.135592
      4          8           0       -1.197893    1.252779   -0.506681
      5          6           0       -0.544486    0.128035    0.014246
      6          6           0        0.863487    0.076547   -0.524569
      7          8           0        1.439804   -1.037138    0.125174
      8          7           0        2.702547   -1.276873   -0.215630
      9          8           0        3.143447   -2.180134    0.323806
     10          8           0        3.200919   -0.579676   -0.989935
     11          8           0       -1.203211   -0.972046   -0.527011
     12          7           0       -2.135449   -1.445036    0.324967
     13          8           0       -3.055540   -0.740678    0.606245
     14          8           0       -1.608717   -2.232441    1.041692
     15          1           0       -0.583124    0.088620    1.076457
     16          1           0        1.381158    0.983284   -0.286979
     17          1           0        0.853505   -0.052761   -1.590846
 ---------------------------------------------------------------------
                    Distance matrix (angstroms):
                    1          2          3          4          5
     1  O    0.000000
     2  N    1.136845   0.000000
     3  O    2.070790   1.158131   0.000000
     4  O    2.060434   1.337701   2.147466   0.000000
     5  C    3.322722   2.327385   2.528263   1.401197   0.000000
     6  C    4.091864   3.118762   3.119172   2.373421   1.508429
     7  O    5.323672   4.261626   4.023299   3.549705   2.303767
     8  N    6.319924   5.297444   4.995786   4.658034   3.545396
     9  O    7.299730   6.234140   5.845513   5.596591   4.361688
    10  O    6.278964   5.363175   5.135507   4.789673   3.941737
    11  O    4.237493   3.431226   3.833710   2.224924   1.391782
    12  N    4.713722   3.959308   4.282863   2.974703   2.258819
    13  O    4.255179   3.696722   4.133027   2.943353   2.722227
    14  O    5.598050   4.710252   4.776350   3.835752   2.785692
    15  H    3.580339   2.502136   2.308673   2.059013   1.063644
    16  H    3.838870   2.897060   2.685096   2.602383   2.128448
    17  H    4.394304   3.606631   3.872501   2.662345   2.136208
                    6          7          8          9         10
     6  C    0.000000
     7  O    1.412304   0.000000
     8  N    2.304198   1.329714   0.000000
     9  O    3.318218   2.061139   1.140730   0.000000
    10  O    2.472000   2.134072   1.154991   2.071397   0.000000
    11  O    2.317497   2.723070   3.929990   4.590947   4.445740
    12  N    3.468507   3.603988   4.871009   5.329832   5.563689
    13  O    4.159972   4.530721   5.841108   6.370184   6.458869
    14  O    3.727786   3.400329   4.591401   4.806366   5.476471
    15  H    2.157802   2.502899   3.785457   4.427308   4.362977
    16  H    1.070795   2.062865   2.619058   3.672320   2.499704
    17  H    1.074135   2.063364   2.609334   3.665439   2.479735
                   11         12         13         14         15
    11  O    0.000000
    12  N    1.348575   0.000000
    13  O    2.183787   1.192395   0.000000
    14  O    2.052769   1.187917   2.123268   0.000000
    15  H    2.020057   2.307932   2.649845   2.537789   0.000000
    16  H    3.249598   4.317144   4.842952   4.587549   2.552994
    17  H    2.491367   3.813478   4.536636   4.212339   3.032885
                   16         17
    16  H    0.000000
    17  H    1.746961   0.000000
 Stoichiometry    C2H3N3O9
 Framework group  C1[X(C2H3N3O9)]
 Deg. of freedom    45
 Full point group                 C1      NOp   1
 Largest Abelian subgroup         C1      NOp   1
 Largest concise Abelian subgroup C1      NOp   1
                         Standard orientation:                         
 ---------------------------------------------------------------------
 Center     Atomic      Atomic             Coordinates (Angstroms)
 Number     Number       Type             X           Y           Z
 ---------------------------------------------------------------------
      1          8           0        3.050022   -2.044064   -0.238004
      2          7           0        2.118629   -1.570246    0.209680
      3          8           0        1.607259   -1.789290    1.225450
      4          8           0        1.557564   -0.672589   -0.608159
      5          6           0        0.468985    0.043428   -0.092728
      6          6           0       -0.807928   -0.691972   -0.415282
      7          8           0       -1.813777    0.072190    0.216323
      8          7           0       -3.045591   -0.400421    0.050755
      9          8           0       -3.837631    0.234389    0.571289
     10          8           0       -3.182385   -1.360250   -0.576955
     11          8           0        0.422956    1.229614   -0.819296
     12          7           0        1.052085    2.224607   -0.161391
     13          8           0        2.223280    2.120958    0.037011
     14          8           0        0.261241    2.744407    0.556608
     15          1           0        0.573893    0.255951    0.944175
     16          1           0       -0.766439   -1.688482   -0.025604
     17          1           0       -0.957872   -0.736699   -1.477960
 ---------------------------------------------------------------------
 Rotational constants (GHZ):           0.9157639           0.4827827           0.3436986
 Standard basis: 6-31G(d) (6D, 7F)
 There are   216 symmetry adapted cartesian basis functions of A   symmetry.
 There are   216 symmetry adapted basis functions of A   symmetry.
   216 basis functions,   404 primitive gaussians,   216 cartesian basis functions
    54 alpha electrons       54 beta electrons
       nuclear repulsion energy      1015.8978015090 Hartrees.
 NAtoms=   17 NActive=   17 NUniq=   17 SFac= 1.00D+00 NAtFMM=   60 NAOKFM=F Big=F
 Integral buffers will be    131072 words long.
 Raffenetti 1 integral format.
 Two-electron integral symmetry is turned on.
 One-electron integrals computed using PRISM.
 NBasis=   216 RedAO= T EigKep=  1.89D-03  NBF=   216
 NBsUse=   216 1.00D-06 EigRej= -1.00D+00 NBFU=   216
 Initial guess from the checkpoint file:  "C:\g16w\Scratch\Gau-11224.chk"
 B after Tr=     0.000000    0.000000    0.000000
         Rot=    0.999858   -0.003078   -0.002238   -0.016423 Ang=  -1.93 deg.
 ExpMin= 1.61D-01 ExpMax= 5.48D+03 ExpMxC= 8.25D+02 IAcc=3 IRadAn=         5 AccDes= 0.00D+00
 Harris functional with IExCor=  205 and IRadAn=       5 diagonalized for initial guess.
 HarFok:  IExCor=  205 AccDes= 0.00D+00 IRadAn=         5 IDoV= 1 UseB2=F ITyADJ=14
 ICtDFT=  3500011 ScaDFX=  1.000000  1.000000  1.000000  1.000000
 FoFCou: FMM=F IPFlag=           0 FMFlag=      100000 FMFlg1=           0
         NFxFlg=           0 DoJE=T BraDBF=F KetDBF=T FulRan=T
         wScrn=  0.000000 ICntrl=       500 IOpCl=  0 I1Cent=   200000004 NGrid=           0
         NMat0=    1 NMatS0=      1 NMatT0=    0 NMatD0=    1 NMtDS0=    0 NMtDT0=    0
 Petite list used in FoFCou.
 Requested convergence on RMS density matrix=1.00D-08 within 128 cycles.
 Requested convergence on MAX density matrix=1.00D-06.
 Requested convergence on             energy=1.00D-06.
 No special actions if energy rises.
 Integral accuracy reduced to 1.0D-05 until final iterations.
 Initial convergence to 1.0D-05 achieved.  Increase integral accuracy.
 SCF Done:  E(RHF) =  -914.013065832     A.U. after   18 cycles
            NFock= 18  Conv=0.36D-08     -V/T= 2.0014
 Calling FoFJK, ICntrl=      2127 FMM=F ISym2X=0 I1Cent= 0 IOpClX= 0 NMat=1 NMatS=1 NMatT=0.
 ***** Axes restored to original set *****
 -------------------------------------------------------------------
 Center     Atomic                   Forces (Hartrees/Bohr)
 Number     Number              X              Y              Z
 -------------------------------------------------------------------
      1        8          -0.044871277    0.058869381   -0.028567609
      2        7           0.001308099   -0.031803059   -0.018547540
      3        8           0.038311844   -0.007879358    0.049870800
      4        8           0.000098975   -0.007481652   -0.002400003
      5        6           0.005015929   -0.006393777   -0.012493874
      6        6          -0.005662494    0.000432295    0.001046943
      7        8          -0.010793437    0.010542670   -0.001706459
      8        7          -0.035904456    0.005576412    0.009462428
      9        8           0.031448485   -0.061507813    0.036645594
     10        8           0.024626661    0.043469979   -0.045049616
     11        8          -0.015501658    0.004149867   -0.046060635
     12        7           0.055887565    0.049124731    0.096210064
     13        8          -0.010803698   -0.024197522   -0.036690608
     14        8          -0.035908970   -0.037827275   -0.011497046
     15        1           0.000075467    0.003435575    0.009235544
     16        1           0.003920201    0.003600605    0.003770591
     17        1          -0.001247238   -0.002111061   -0.003228573
 -------------------------------------------------------------------
 Cartesian Forces:  Max     0.096210064 RMS     0.030194382

 GradGradGradGradGradGradGradGradGradGradGradGradGradGradGradGradGradGrad
 Berny optimization.
 Using GEDIIS/GDIIS optimizer.
 FormGI is forming the generalized inverse of G from B-inverse, IUseBI=4.
 Internal  Forces:  Max     0.079320927 RMS     0.021339291
 Search for a local minimum.
 Step number   3 out of a maximum of   77
 All quantities printed in internal units (Hartrees-Bohrs-Radians)
 Mixed Optimization -- RFO/linear search
 Update second derivatives using D2CorX and points    2    3
 ITU=  0  1  0
 Use linear search instead of GDIIS.
     Eigenvalues ---    0.00256   0.00555   0.01089   0.01150   0.01159
     Eigenvalues ---    0.01333   0.01340   0.02144   0.02876   0.02920
     Eigenvalues ---    0.05186   0.05690   0.05845   0.07040   0.09416
     Eigenvalues ---    0.10665   0.13303   0.18022   0.19633   0.21972
     Eigenvalues ---    0.23473   0.24752   0.24993   0.25000   0.25000
     Eigenvalues ---    0.25000   0.25000   0.25003   0.25346   0.28677
     Eigenvalues ---    0.33859   0.33903   0.34132   0.37890   0.39462
     Eigenvalues ---    0.41403   0.41419   0.41831   0.43115   0.43897
     Eigenvalues ---    0.46059   0.90682   0.91208   0.92037   1.01978
 RFO step:  Lambda=-8.22611229D-02 EMin= 2.55622193D-03
 Quartic linear search produced a step of -0.02677.
 Iteration  1 RMS(Cart)=  0.06984021 RMS(Int)=  0.04703723
 Iteration  2 RMS(Cart)=  0.03100655 RMS(Int)=  0.01535770
 Iteration  3 RMS(Cart)=  0.00946433 RMS(Int)=  0.00976127
 Iteration  4 RMS(Cart)=  0.00043664 RMS(Int)=  0.00975219
 Iteration  5 RMS(Cart)=  0.00000799 RMS(Int)=  0.00975219
 Iteration  6 RMS(Cart)=  0.00000021 RMS(Int)=  0.00975219
 Variable       Old X    -DE/DX   Delta X   Delta X   Delta X     New X
                                 (Linear)    (Quad)   (Total)
    R1        2.14833   0.07932   0.00306   0.06872   0.07178   2.22011
    R2        2.18855   0.06280   0.00244   0.05562   0.05806   2.24661
    R3        2.52789   0.01726   0.00245   0.02674   0.02918   2.55707
    R4        2.64788   0.01167   0.00086   0.02020   0.02106   2.66893
    R5        2.85052   0.00563   0.00102   0.01225   0.01327   2.86379
    R6        2.63009   0.00915   0.00166   0.01582   0.01748   2.64757
    R7        2.01000   0.00909   0.00117   0.01820   0.01937   2.02937
    R8        2.66887   0.00504   0.00050   0.00867   0.00917   2.67804
    R9        2.02351   0.00578   0.00085   0.01147   0.01233   2.03584
   R10        2.02982   0.00347   0.00082   0.00657   0.00738   2.03720
   R11        2.51280   0.02113   0.00289   0.03312   0.03601   2.54881
   R12        2.15567   0.07819   0.00294   0.06801   0.07095   2.22661
   R13        2.18262   0.06707   0.00258   0.05958   0.06215   2.24477
   R14        2.54844   0.02852   0.00362   0.04730   0.05092   2.59935
   R15        2.25330  -0.01461   0.00774  -0.05294  -0.04520   2.20810
   R16        2.24484   0.00221   0.00782  -0.02500  -0.01718   2.22766
    A1        2.25018   0.00551   0.00037   0.01470   0.01502   2.26520
    A2        1.96335   0.00725   0.00007   0.01982   0.01984   1.98319
    A3        2.06911  -0.01270  -0.00046  -0.03392  -0.03443   2.03468
    A4        2.03070   0.00560  -0.00102   0.01658   0.01556   2.04626
    A5        1.90696   0.00069   0.00000   0.00257   0.00256   1.90951
    A6        1.84334  -0.00052   0.00097  -0.00345  -0.00252   1.84082
    A7        1.96501  -0.00216   0.00029  -0.01555  -0.01525   1.94976
    A8        1.85030   0.00286  -0.00015   0.01299   0.01281   1.86311
    A9        1.97074  -0.00072  -0.00113   0.00150   0.00032   1.97105
   A10        1.91972   0.00016   0.00010   0.00335   0.00340   1.92312
   A11        1.81674   0.00586   0.00147   0.01392   0.01542   1.83216
   A12        1.92100  -0.00056   0.00010  -0.00146  -0.00132   1.91968
   A13        1.92839  -0.00238  -0.00052  -0.00592  -0.00643   1.92196
   A14        1.94807  -0.00348  -0.00047  -0.01334  -0.01380   1.93427
   A15        1.94503  -0.00147  -0.00047  -0.00288  -0.00334   1.94169
   A16        1.90360   0.00203  -0.00009   0.00938   0.00928   1.91287
   A17        1.99520   0.01296  -0.00056   0.03652   0.03596   2.03116
   A18        1.96991   0.00564  -0.00001   0.01547   0.01546   1.98536
   A19        2.06321  -0.00853  -0.00039  -0.02266  -0.02306   2.04015
   A20        2.25007   0.00289   0.00040   0.00720   0.00760   2.25767
   A21        1.93769   0.00992  -0.00010   0.02449   0.02438   1.96207
   A22        2.06605  -0.02023  -0.00241   0.01316  -0.03492   2.03113
   A23        1.88298   0.03755   0.00051   0.16946   0.12426   2.00723
   A24        2.20355   0.00694  -0.00518   0.09198   0.04118   2.24474
    D1       -3.10310  -0.00220   0.00057  -0.02153  -0.02098  -3.12408
    D2       -3.05085   0.00039  -0.00017   0.00336   0.00317  -3.04768
    D3        0.12315  -0.00151   0.00029  -0.01488  -0.01456   0.10860
    D4       -1.58524   0.00058   0.00096  -0.00720  -0.00627  -1.59150
    D5        2.71443  -0.00278   0.00064  -0.02163  -0.02096   2.69347
    D6        0.61918  -0.00143  -0.00031  -0.01474  -0.01505   0.60413
    D7        3.08196  -0.00193  -0.00037  -0.01148  -0.01186   3.07010
    D8        0.99213  -0.00087  -0.00073  -0.00293  -0.00367   0.98845
    D9       -1.11127  -0.00150  -0.00035  -0.00986  -0.01023  -1.12150
   D10       -1.22224  -0.00076   0.00067  -0.00772  -0.00704  -1.22928
   D11        2.97110   0.00030   0.00031   0.00084   0.00115   2.97226
   D12        0.86771  -0.00033   0.00069  -0.00610  -0.00541   0.86231
   D13        0.88083   0.00091   0.00006   0.00584   0.00592   0.88675
   D14       -1.20901   0.00197  -0.00030   0.01440   0.01411  -1.19490
   D15        2.97079   0.00134   0.00008   0.00746   0.00755   2.97833
   D16       -1.67946   0.00235  -0.00037   0.01807   0.01770  -1.66175
   D17        2.58116   0.00053  -0.00075   0.01087   0.01015   2.59132
   D18        0.44529  -0.00046   0.00064  -0.00080  -0.00019   0.44510
   D19        3.13438  -0.00043  -0.00027  -0.00023  -0.00047   3.13391
   D20       -1.07740   0.00061   0.00047  -0.00047  -0.00003  -1.07743
   D21        1.05572  -0.00031  -0.00028   0.00005  -0.00022   1.05551
   D22        3.14070  -0.00023   0.00007  -0.00233  -0.00223   3.13847
   D23       -0.00355   0.00019  -0.00010   0.00215   0.00202  -0.00152
   D24        3.13858   0.00045  -0.00020   0.00502   0.00485  -3.13975
   D25        1.11175   0.01927  -0.00477   0.21379   0.21532   1.32707
   D26       -1.53617  -0.02609   0.00558  -0.29013  -0.29086  -1.82703
   D27       -2.54813  -0.06161   0.00918  -0.62309  -0.60796   3.12710
         Item               Value     Threshold  Converged?
 Maximum Force            0.079321     0.000450     NO 
 RMS     Force            0.021339     0.000300     NO 
 Maximum Displacement     0.472178     0.001800     NO 
 RMS     Displacement     0.101187     0.001200     NO 
 Predicted change in Energy=-6.475337D-02
 GradGradGradGradGradGradGradGradGradGradGradGradGradGradGradGradGradGrad

                          Input orientation:                          
 ---------------------------------------------------------------------
 Center     Atomic      Atomic             Coordinates (Angstroms)
 Number     Number       Type             X           Y           Z
 ---------------------------------------------------------------------
      1          8           0       -1.771725    3.290829   -0.233622
      2          7           0       -1.108314    2.426706    0.206150
      3          8           0       -0.376007    2.431216    1.142676
      4          8           0       -1.196756    1.268352   -0.487673
      5          6           0       -0.522377    0.145370    0.040368
      6          6           0        0.878344    0.082853   -0.534664
      7          8           0        1.496357   -1.008961    0.124376
      8          7           0        2.769834   -1.278930   -0.228549
      9          8           0        3.239058   -2.192225    0.349421
     10          8           0        3.256946   -0.581574   -1.057691
     11          8           0       -1.211441   -0.970357   -0.452819
     12          7           0       -2.155462   -1.437182    0.432027
     13          8           0       -3.143101   -0.817905    0.512000
     14          8           0       -1.858583   -2.425410    1.002023
     15          1           0       -0.534353    0.143440    1.114194
     16          1           0        1.402465    1.001197   -0.328369
     17          1           0        0.835115   -0.077418   -1.599849
 ---------------------------------------------------------------------
                    Distance matrix (angstroms):
                    1          2          3          4          5
     1  O    0.000000
     2  N    1.174829   0.000000
     3  O    2.140365   1.188855   0.000000
     4  O    2.117911   1.353143   2.164236   0.000000
     5  C    3.395564   2.361207   2.541967   1.412339   0.000000
     6  C    4.171883   3.160579   3.146692   2.390326   1.515450
     7  O    5.412645   4.312170   4.046912   3.579611   2.326978
     8  N    6.442708   5.381518   5.053885   4.721189   3.597166
     9  O    7.450622   6.344659   5.922344   5.687949   4.439398
    10  O    6.400166   5.450003   5.207385   4.856193   4.002182
    11  O    4.303450   3.461924   3.848929   2.239029   1.401032
    12  N    4.790035   4.009635   4.316942   3.014113   2.307560
    13  O    4.395261   3.842057   4.314087   3.023255   2.831701
    14  O    5.848911   4.973866   5.079826   4.037461   3.052727
    15  H    3.640571   2.523346   2.293426   2.066441   1.073894
    16  H    3.914956   2.936290   2.715122   2.617766   2.138556
    17  H    4.472950   3.648176   3.909156   2.678905   2.140731
                    6          7          8          9         10
     6  C    0.000000
     7  O    1.417156   0.000000
     8  N    2.350722   1.348771   0.000000
     9  O    3.395667   2.118435   1.178274   0.000000
    10  O    2.524434   2.163241   1.187880   2.138804   0.000000
    11  O    2.341613   2.768902   3.999508   4.684388   4.525871
    12  N    3.528310   3.689689   4.971915   5.447729   5.678510
    13  O    4.251928   4.659542   5.976936   6.530478   6.593966
    14  O    4.017905   3.745960   4.924527   5.144532   5.814705
    15  H    2.172122   2.536050   3.839759   4.503203   4.429071
    16  H    1.077319   2.062651   2.660571   3.745720   2.544833
    17  H    1.078042   2.068324   2.658427   3.748467   2.532464
                   11         12         13         14         15
    11  O    0.000000
    12  N    1.375519   0.000000
    13  O    2.164585   1.168474   0.000000
    14  O    2.156974   1.178825   2.115227   0.000000
    15  H    2.038265   2.364680   2.844713   2.892259   0.000000
    16  H    3.276434   4.379810   4.967648   4.913859   2.562810
    17  H    2.510261   3.862774   4.564474   4.420273   3.047991
                   16         17
    16  H    0.000000
    17  H    1.761238   0.000000
 Stoichiometry    C2H3N3O9
 Framework group  C1[X(C2H3N3O9)]
 Deg. of freedom    45
 Full point group                 C1      NOp   1
 Largest Abelian subgroup         C1      NOp   1
 Largest concise Abelian subgroup C1      NOp   1
                         Standard orientation:                         
 ---------------------------------------------------------------------
 Center     Atomic      Atomic             Coordinates (Angstroms)
 Number     Number       Type             X           Y           Z
 ---------------------------------------------------------------------
      1          8           0        3.054804   -2.178105   -0.249933
      2          7           0        2.096286   -1.677145    0.208876
      3          8           0        1.545857   -1.891156    1.240672
      4          8           0        1.546310   -0.729900   -0.585637
      5          6           0        0.459846    0.003637   -0.060071
      6          6           0       -0.838196   -0.688541   -0.424164
      7          8           0       -1.848855    0.063664    0.224748
      8          7           0       -3.117837   -0.355715    0.043123
      9          8           0       -3.919415    0.299976    0.605148
     10          8           0       -3.274427   -1.312854   -0.642751
     11          8           0        0.470095    1.227250   -0.742389
     12          7           0        1.140878    2.208389   -0.049951
     13          8           0        2.307753    2.149271   -0.065397
     14          8           0        0.451703    3.009569    0.472329
     15          1           0        0.564829    0.167375    0.996062
     16          1           0       -0.827015   -1.704396   -0.065653
     17          1           0       -0.973594   -0.683970   -1.493660
 ---------------------------------------------------------------------
 Rotational constants (GHZ):           0.8493457           0.4673517           0.3259474
 Standard basis: 6-31G(d) (6D, 7F)
 There are   216 symmetry adapted cartesian basis functions of A   symmetry.
 There are   216 symmetry adapted basis functions of A   symmetry.
   216 basis functions,   404 primitive gaussians,   216 cartesian basis functions
    54 alpha electrons       54 beta electrons
       nuclear repulsion energy       995.7807956828 Hartrees.
 NAtoms=   17 NActive=   17 NUniq=   17 SFac= 1.00D+00 NAtFMM=   60 NAOKFM=F Big=F
 Integral buffers will be    131072 words long.
[...]
 0.2476246,-0.1164453,-0.7929741,-0.4676638,-3.1229332,-0.2687919,-2.43
 18154,-1.3386904,-1.5452275,1.1209128,-5.1024254,-0.6882209,-0.5612842
 ,-2.8066534,-3.5519255,0.4030036,3.3202677,1.2772563,-0.8489543,-0.928
 2418,1.7651285,3.0975388,-1.81753,-0.7430089,-0.310228,-0.6497608,2.28
 49213,-0.3882483,2.2046483,-0.5189683,-0.4791052,-3.189121,3.2425474,-
 0.636524,-2.1823715,-1.4676348,0.5217962,1.2307048,0.5603119,-3.598769
 9,-2.3869021,0.3703278,-0.2649423,0.3905635,-3.4935488,1.4176679,-0.95
 85783,0.3580387,1.1676776,4.4376565,-7.9161735,1.1507212,-1.486986,2.4
 614169,0.4197914,-1.8363331,-0.4367088,0.6832734,-1.5647097,-0.6169942
 ,1.1404196,0.1252529,3.7201598,-1.7243878,1.4749857,-0.4341865,-1.2764
 097,1.9045588,3.9529975,-1.3075849,-0.1417452,-1.1806633,1.4975703,-0.
 4223025,-1.5418115,0.0803634,1.08273,-0.2650772,-0.6984453,1.0566527,-
 1.4283628,-0.286924,-0.3362382,-0.1001713,0.5171639,-0.6312746,6.03986
 1,-3.8383053,1.603415,2.3371175,-1.2452413,1.3448469,-2.3031022,3.2439
 557,-8.385362,0.0662216,3.5129971,-1.8870113,1.8526004,-0.5563186,1.39
 26085,2.2773963,-3.9719231,5.6469864,4.2533238,1.5744573,1.0983665,-2.
 9082939,-1.0168606,1.5062044,1.9990042,0.4069265,4.0562434,0.4116151,-
 2.9297716,0.4880457,-2.6145598,1.2889299,-1.8379974,1.4832812,2.489777
 8,-6.1544955,7.3068794,1.4799403,1.3848843,-3.3234829,0.0733071,1.7396
 198,-0.0128853,0.0586009,-2.8138111,-0.2356163,-0.6243028,0.1390936,-4
 .5502914,-1.8052673,-2.2455989,2.0543998,-0.560759,-2.1160337,-3.70507
 51,-1.5611829,1.3134165,2.2836657,1.7445895,-0.3518501,-1.5841651,-0.2
 191012,1.9797355,0.4762661,0.8708442,0.8667616,2.8527783,0.6512081,0.0
 334315,-0.7588481,0.1099204,0.2250142,-2.9662637,1.9512123,-0.9452467,
 2.5934715,-0.7395315,-1.1209513,1.6154317,0.2256192,5.6556323,-0.05777
 81,2.491161,0.3021012,1.8526211,1.0141895,2.2222549,-1.4713227,2.35607
 25,5.7285858,-5.458711,-4.54549,-2.5504177,-1.2426128,-1.0383436,-1.00
 47642,-1.8089085,-3.3826577,-11.2764982,0.1713851,-2.4924587,-1.820832
 4,-0.6718827,-0.3155558,-0.9969923,-2.1074309,-4.0976273,-2.8581279,0.
 683631,-0.243312,-0.4827699,0.906045,0.1947435,0.4665021,-0.0016674,-0
 .5221621,0.9858961,-0.0159183,1.1075214,-0.101521,1.002919,0.0292675,1
 .1425655,0.0146655,-0.0174929,4.1680504,2.0124193,2.0546469,1.1719297,
 0.3793382,0.0186893,0.2552012,1.7036078,1.629728,5.9553293,-0.158179,-
 0.1332092,0.4582355,0.9443718,-0.3008791,0.3297262,0.4711048,1.0878798
 ,-0.46124,-0.8635769,-0.0654836,0.4764334,-1.4240034,0.1596471,-0.6749
 71,-0.4611437,0.4712452,-0.5253965,0.190929,-1.5753174,-0.6441007,-0.9
 190082,0.1303163,-0.8831625,-0.1384182,-0.7464988,-6.4554464|HyperPola
 r=18.3696431,-4.0814199,29.0015013,53.4063595,-1.6554363,14.2555819,11
 .2185654,-16.5178999,-12.3536924,-22.0887282|Quadrupole=-5.4738447,-1.
 2119757,6.6858204,4.323018,0.7993826,-0.4062814|PG=C01 [X(C2H3N3O9)]|N
 Imag=0||0.46930222,-0.37307862,0.46525178,0.26527087,-0.17451899,0.254
 93860,-0.41118778,0.25976039,-0.18067021,0.85112641,0.27735528,-0.4001
 5061,0.15536238,-0.28224752,0.79884666,-0.16879423,0.13163740,-0.24138
 638,0.45903232,-0.04562323,0.87542363,-0.06196875,0.04088783,-0.100688
 69,-0.31184553,-0.03610409,-0.25821279,0.34775866,0.04099821,0.0381443
 6,0.04697171,-0.02112887,-0.17639269,-0.06293899,0.01356881,0.16990132
 ,-0.10039328,0.04597285,-0.04718819,-0.25110940,-0.07975606,-0.4808987
 3,0.38212192,0.09439259,0.57812719,-0.00346819,0.07481858,0.01926718,-
 0.11237846,0.02264361,-0.04961415,0.02842241,-0.02681825,-0.02332363,0
 .22341326,0.05572196,-0.10521584,-0.02520349,0.01854752,-0.17021007,-0
 .03831432,-0.02267503,-0.02204833,-0.06560010,-0.15421592,0.52280081,0
 .00026226,0.00977404,0.03638221,-0.04564958,-0.02513595,-0.18750218,-0
 .02033499,-0.06743205,-0.04258814,0.13673068,0.04092914,0.35583681,0.0
 0584513,-0.00208455,-0.00507227,-0.00981740,0.01644830,0.02698877,-0.0
 0556699,-0.00555066,-0.01183082,-0.12460335,0.06766235,-0.05549264,0.6
 2212742,-0.00642414,0.01336885,0.00077281,0.02543854,-0.07409642,-0.01
 474096,0.00630406,0.00215632,0.01424054,0.03980454,-0.11919125,0.02477
 134,0.01033500,0.52764437,0.00222041,-0.01536545,-0.00506400,0.0278663
 0,0.00198972,0.05026259,-0.00891290,-0.00223126,-0.01511182,-0.0647279
 9,0.05385270,-0.17162306,-0.02732708,0.06677643,0.80231356,0.00137833,
 -0.00270558,-0.00015892,-0.00161274,0.00844366,0.00340895,-0.00143383,
 -0.00221723,-0.00129483,-0.01433417,0.00616671,0.00159014,-0.21524477,
 -0.00550818,0.06849023,0.61634602,-0.00094180,-0.00185990,-0.00084394,
 0.00893021,0.00250461,0.00489124,-0.00346452,0.00023943,-0.00139625,0.
 03319999,-0.01899253,-0.00530802,0.00951296,-0.07529523,-0.01976811,0.
 07336056,0.66339074,0.00025314,0.00239988,0.00028307,-0.00460640,-0.00
 272655,-0.00429461,0.00110983,-0.00008429,0.00155358,-0.02244299,0.012
 76077,0.00918627,0.07445072,-0.01018866,-0.14416748,-0.01527348,0.0571
 9869,0.69645745,-0.00176921,0.00473318,0.00001719,0.00034376,-0.011743
 37,-0.00529635,0.00030583,0.00243905,0.00209983,-0.01490093,0.01214158
 ,0.00477715,-0.01778534,0.03524798,-0.02834853,-0.11191339,0.04718540,
 -0.03183017,0.49193758,0.00106965,-0.00154970,0.00039172,-0.00304457,0
 .00389626,0.00063299,0.00122998,-0.00066690,-0.00028989,0.00381719,-0.
 00019028,-0.00143820,0.00472110,-0.01103229,0.00587666,0.02182333,-0.1
 7013147,0.09060732,-0.15678115,0.32997572,0.00041069,-0.00107570,0.000
 28067,0.00027706,0.00156969,0.00022134,0.00008445,-0.00013483,0.000186
 63,0.00592800,-0.00358560,0.00006602,0.00290728,-0.01007565,0.00892284
 ,-0.00313812,0.07700448,-0.15755082,-0.04541133,-0.18624773,0.30680546
 ,0.00257288,-0.00445685,0.00064948,-0.00402098,0.01094740,0.00222831,0
 .00119175,-0.00279093,-0.00076233,0.00763703,-0.00803418,-0.00106394,-
 0.00983458,0.00102203,0.00004265,-0.04933268,0.03718419,-0.01750449,-0
 .20427606,0.02870974,0.03065096,0.76672744,-0.00113739,0.00118761,-0.0
 0034346,0.00269799,-0.00270754,0.00015016,-0.00120205,0.00064934,-0.00
 009010,0.00059301,0.00069559,0.00006458,0.00552044,-0.00562650,0.00491
 448,0.04102432,-0.00570842,-0.02063221,0.00995991,-0.13862902,0.052772
 87,-0.16271007,0.88102608,-0.00051080,0.00111950,-0.00039707,0.0000134
 9,-0.00197088,0.00017589,-0.00010274,0.00038148,-0.00028244,-0.0034332
 0,0.00301429,0.00094896,-0.00091768,0.00405088,-0.00675394,-0.02105265
 ,-0.01890389,0.02645840,0.05138140,0.04270511,-0.15996544,-0.05012081,
 -0.50056570,0.90122430,-0.00088524,0.00173229,-0.00011626,0.00114029,-
 0.00434226,-0.00141949,-0.00028431,0.00101044,0.00053545,-0.00365264,0
 .00345804,0.00102735,0.00403717,0.00252306,-0.00301495,-0.00140112,-0.
 00853505,0.01352049,-0.08105930,0.08781531,-0.03835479,-0.27954425,0.1
 8944941,-0.12176672,0.30839959,0.00068434,-0.00115242,0.00008206,-0.00
 107110,0.00286926,0.00090430,0.00036812,-0.00063600,-0.00035003,0.0020
 3037,-0.00203033,-0.00075637,-0.00336751,-0.00130441,0.00151624,0.0017
 9294,0.00709355,-0.00197900,0.06142312,-0.01642877,0.01395495,0.210509
 05,-0.44319161,0.23464802,-0.27821819,0.51308749,-0.00018036,0.0003326
 5,0.00007837,0.00041720,-0.00105162,-0.00064100,-0.00010182,0.00024454
 ,0.00031798,-0.00058331,0.00050067,0.00026488,0.00164443,0.00032234,0.
 00019844,0.00203722,0.00362452,0.00138638,-0.00984271,0.00005682,0.031
 73463,-0.14422251,0.24542520,-0.31135183,0.16268485,-0.35520286,0.3440
 7106,-0.00076752,0.00138218,-0.00016873,0.00106908,-0.00348741,-0.0007
 5217,-0.00021040,0.00094974,0.00021782,-0.00180005,0.00257123,0.000033
 26,0.00351156,-0.00172208,0.00204228,0.00063063,-0.01038816,0.00884257
 ,-0.05986891,-0.02162484,0.07240020,-0.24658330,-0.08031922,0.15127846
 ,0.05735306,0.00318166,-0.01085265,0.25360256,0.00020908,-0.00010392,0
 .00004470,-0.00068894,0.00022133,-0.00004041,0.00034874,0.00000872,0.0
 0000608,-0.00053330,0.00033670,-0.00013763,-0.00117917,0.00150676,-0.0
 0108012,0.00465009,-0.00753248,0.00192549,-0.01591896,0.03215753,0.009
 95519,-0.09940292,-0.28640936,0.22826277,0.00385682,-0.05867934,0.1075
 3764,0.10617008,0.31503442,0.00033066,-0.00061317,0.00022060,-0.000311
 83,0.00117258,-0.00017674,0.00013028,-0.00030692,0.00017928,0.00144180
 ,-0.00132548,0.00007249,-0.00048250,0.00033818,0.00186151,-0.00724327,
 0.00966802,-0.01055944,0.06618168,0.01297898,-0.01493165,0.17167302,0.
 21843225,-0.44621014,-0.01148474,0.10773607,-0.06654291,-0.22223487,-0
 .34453940,0.53202692,0.00330357,-0.00441425,0.00019381,-0.00512129,0.0
 1094647,0.00374772,0.00149196,-0.00323381,-0.00047051,0.01834293,-0.00
 118143,0.00593036,-0.12817100,-0.05701330,-0.02152237,-0.02921876,-0.0
 4701576,-0.01313990,-0.00579553,0.00041452,0.00039982,0.00736252,-0.00
 501890,0.00045044,-0.00262901,0.00253634,-0.00120665,-0.00236408,0.001
 58563,0.00043973,0.40396736,0.00671301,-0.00861373,-0.00180360,-0.0087
 9214,0.01175819,0.02070418,-0.00030873,-0.00446500,-0.00490590,-0.0025
 4977,-0.08266193,-0.01455551,-0.04806531,-0.18902167,-0.08789589,-0.00
 972386,-0.01041292,-0.00037068,-0.00031328,0.00208820,0.00014793,0.001
 93253,-0.00170260,0.00063469,-0.00102683,0.00125786,-0.00063750,-0.000
 34683,0.00079091,-0.00050251,0.16306984,0.45414828,-0.00090681,0.00207
 901,0.00169600,-0.00034253,-0.00430846,-0.01177832,0.00273359,-0.00183
 951,0.00525357,0.00131560,0.02170539,0.01398471,0.00466813,-0.07124761
 ,-0.13881560,0.01258886,0.02218384,0.00757105,0.00012268,-0.00077717,0
 .00057731,-0.00147788,0.00148332,-0.00080114,0.00085174,-0.00096666,0.
 00060980,0.00037758,-0.00081929,0.00046295,-0.11416622,0.12854744,0.28
 472257,-0.00645948,0.00787587,0.00000230,0.01066070,-0.01568613,-0.009
 36147,-0.00145342,0.00553048,0.00303491,-0.00569631,0.02385646,0.00290
 418,-0.04475612,-0.05844143,0.00152411,-0.00052442,0.00085618,0.000316
 05,0.00719321,-0.00187807,-0.00035753,-0.01015176,0.00479416,0.0005992
 2,0.00342958,-0.00279587,0.00113600,0.00306507,-0.00069167,-0.00097979
 ,-0.15145421,-0.01632856,0.04155422,0.67088812,-0.00127681,0.00353292,
 -0.00075829,-0.00008723,-0.01328119,0.00035675,0.00023382,0.00305415,-
 0.00010375,0.00543179,0.00460682,-0.00056552,-0.04716586,-0.00597186,0
 .03657910,-0.00647810,-0.00290028,-0.00559286,0.00354697,-0.00190413,-
 0.00041990,-0.00545894,0.00394372,-0.00021362,0.00201432,-0.00232718,0
 .00085940,0.00157757,-0.00091685,-0.00008724,-0.00486307,-0.15710045,-
 0.04800887,0.21913444,1.11029878,0.00273504,-0.00366014,-0.00138651,-0
 .00554015,0.00482735,0.01145843,-0.00007059,-0.00221831,-0.00517272,0.
 00888887,-0.01273990,-0.00516335,-0.00470722,0.04900045,0.02565464,-0.
 00389132,-0.00908426,-0.00383898,-0.00194261,0.00002376,-0.00039654,0.
 00368276,-0.00197055,0.00081399,-0.00134267,0.00110851,-0.00085180,-0.
 00101284,0.00062448,-0.00014037,0.04793878,-0.04427851,-0.15838721,-0.
 09519526,0.43781079,0.75336024,0.00219516,-0.00227269,0.00020505,-0.00
 411819,0.00421729,0.00161860,0.00088127,-0.00142537,-0.00056178,0.0023
 2995,-0.00505617,-0.00050867,-0.00355439,0.01341866,0.00263624,0.00167
 776,-0.00060407,0.00216558,-0.00172038,0.00042957,-0.00005575,0.003051
 24,-0.00141730,0.00001768,-0.00103657,0.00084427,-0.00039078,-0.000947
 53,0.00025542,0.00015349,-0.03444652,0.02193726,0.07014159,-0.19920023
 ,0.06916434,0.11666971,0.18946793,-0.00053774,-0.00023188,0.00044070,0
 .00215492,0.00449716,-0.00242200,-0.00029812,-0.00032997,0.00111568,-0
 .00657879,0.00063513,0.00291229,-0.00255848,-0.01309841,-0.00505388,0.
 00233795,0.00093202,0.00269013,-0.00062091,0.00077760,0.00015952,0.000
 74855,-0.00088693,0.00005805,-0.00037713,0.00055382,-0.00016074,-0.000
 25237,0.00027445,-0.00006435,0.01903316,0.03211104,-0.01577845,0.08579
 977,-0.36172632,-0.25895395,-0.08199073,0.43595188,-0.00085645,0.00135
 984,0.00073984,0.00143162,-0.00236765,-0.00576826,0.00010527,0.0008512
 6,0.00270135,-0.00108221,0.00642968,0.00112163,-0.00501659,-0.01893114
 ,-0.00784070,0.00066860,0.00205865,0.00121988,0.00095547,0.00015744,0.
 00029259,-0.00165391,0.00063472,-0.00032500,0.00055162,-0.00036756,0.0
 0035780,0.00040713,-0.00015474,0.00004703,0.06586346,-0.01855646,-0.03
 537427,0.13221745,-0.24494630,-0.41807658,-0.17656351,0.37312500,0.481
 13034,0.00190667,-0.00254262,0.00018567,-0.00283036,0.00595981,0.00210
 227,0.00044310,-0.00161754,-0.00041974,0.00133933,-0.00718040,-0.00047
 278,-0.00095765,0.01562546,0.01029032,0.00026581,-0.00499268,-0.001352
 45,-0.00228035,0.00100153,0.00020061,0.00347396,-0.00195470,-0.0000324
 8,-0.00130737,0.00118689,-0.00049521,-0.00106975,0.00049178,0.00018375
 ,-0.06767309,-0.09534915,0.00023474,-0.27955748,-0.23554415,-0.0602440
 2,0.05134959,-0.01545328,-0.01993429,0.29792836,0.00119666,-0.00201283
 ,0.00051668,-0.00131141,0.00609809,-0.00063352,0.00027606,-0.00148769,
 0.00066744,-0.00044598,-0.00338771,0.00070741,-0.00154375,0.01119897,0
 .00131076,0.00142661,-0.00456666,-0.00013172,-0.00216204,0.00139818,0.
 00029403,0.00336165,-0.00256533,0.00022698,-0.00134779,0.00152349,-0.0
 0060013,-0.00101448,0.00072037,0.00000333,-0.06483320,-0.03151659,0.00
 578330,-0.25737230,-0.57912316,-0.15538486,-0.01642536,-0.10103889,-0.
 10200133,0.34041848,0.70416801,-0.00020920,0.00020396,0.00032520,0.000
 77676,0.00056362,-0.00193776,-0.00003853,0.00015954,0.00099934,-0.0021
 9123,0.00075746,0.00078456,0.00433031,-0.00770537,-0.00175283,0.000701
 09,0.00157085,0.00090474,-0.00000884,0.00014773,0.00015074,-0.00019331
 ,0.00008621,-0.00028134,0.00008017,-0.00004872,0.00012799,0.00002634,-
 0.00006531,0.00011939,0.02463380,0.03050362,0.03007541,-0.07891024,-0.
 17317734,-0.19595053,-0.01968280,-0.10173639,-0.02183736,0.06938640,0.
 24789854,0.18791585,-0.00034066,0.00058635,0.00048110,0.00094711,-0.00
 331290,-0.00440338,0.00076926,-0.00026904,0.00200246,-0.00462571,0.008
 80241,-0.02780472,-0.06746914,0.00026362,0.00624303,0.00557358,0.00601
 405,0.03577632,0.00228582,-0.00096065,-0.00066337,-0.00053567,-0.00099
 922,0.00121093,-0.00002116,0.00034782,-0.00034059,-0.00031530,0.000670
 20,-0.00100506,-0.00216904,-0.01147840,-0.02187626,0.00271229,-0.00095
 798,-0.00451351,-0.00483727,-0.00083968,0.00276921,0.00029143,0.001200
 28,0.00116847,0.07288661,-0.00108967,-0.00012053,-0.00155756,0.0022966
 8,0.00534940,0.00666535,-0.00071115,-0.00745084,-0.00410508,0.00866272
 ,-0.00669078,0.03624545,-0.00068634,-0.06467813,-0.04117192,-0.0004587
 4,0.00321594,0.00025981,-0.00032826,0.00019792,-0.00070003,0.00039243,
 -0.00006202,-0.00002840,-0.00015238,0.00007660,0.00000509,-0.00011597,
 -0.00010206,0.00013574,-0.01280925,-0.01829488,-0.03844744,0.00565103,
 -0.00024850,-0.00582700,-0.00125202,0.00159551,0.00286799,-0.00069051,
 -0.00000672,0.00104642,0.00098859,0.08667480,0.00086344,-0.00011997,0.
 00097024,-0.00276090,-0.00184592,-0.00456228,0.00270719,-0.00570077,0.
 00248489,-0.00479840,0.00691467,-0.01289774,-0.01168034,-0.03834095,-0
 .38746940,0.00120124,-0.00174164,-0.00851460,-0.00122523,0.00032322,0.
 00077853,0.00165150,-0.00042879,0.00007057,-0.00039533,0.00025515,-0.0
 0015463,-0.00057137,-0.00012391,0.00031940,-0.00113654,-0.00614083,0.0
 0056564,0.00017118,-0.00264795,-0.00253525,0.00472701,0.00344433,0.001
 04617,0.00018067,0.00112166,0.00050763,0.01040323,0.04435366,0.4085521
 0,0.00058869,-0.00032359,0.00065354,-0.00308519,0.00036585,-0.00146927
 ,0.00150593,0.00029285,0.00062862,0.00271371,0.00056021,-0.00049778,-0
 .01156195,-0.03036600,-0.00716896,-0.13614737,-0.13297318,-0.01596854,
 0.00707719,0.02983889,-0.00112591,0.00634888,0.00104951,-0.00115765,-0
 .00152019,-0.00002549,-0.00070460,-0.00260552,0.00083190,0.00128303,-0
 .00839516,-0.00078318,0.00517053,0.00185862,-0.00069254,-0.00289814,-0
 .00055096,0.00060430,0.00096690,-0.00144317,-0.00108448,0.00048352,0.0
 0100766,0.00057491,0.00000314,0.14245338,0.00016030,-0.00020727,0.0000
 7293,-0.00032956,0.00086047,0.00006450,0.00064793,-0.00061350,-0.00030
 753,0.00063120,0.00136240,-0.00015993,0.00019099,0.00322272,0.00052703
 ,-0.12694554,-0.29053889,-0.03477411,0.00089124,-0.03133997,0.00708696
 ,-0.00749150,-0.00255199,0.00444673,0.00136681,0.00065709,-0.00083227,
 0.00140031,0.00289194,-0.00230766,0.00237257,0.00100938,-0.00069990,0.
 00005160,0.00019170,0.00050955,0.00007361,-0.00000556,-0.00009308,0.00
 043847,0.00044587,-0.00012480,-0.00049197,0.00018925,0.00018829,0.1323
 5420,0.31872878,-0.00052506,0.00046948,-0.00056327,0.00127002,-0.00033
 798,0.00162401,-0.00064169,-0.00028990,-0.00083614,-0.00189088,-0.0002
 0308,-0.00019298,0.00809143,0.01499085,0.00266497,-0.02044686,-0.03984
 198,-0.07108400,0.00654256,0.02801750,0.00005138,0.00239941,-0.0010945
 4,0.00079407,-0.00068940,0.00007179,-0.00060589,-0.00072629,0.00008810
 ,0.00013708,0.00356094,-0.00008050,-0.00155418,0.00009774,0.00081184,0
 .00129135,-0.00014411,-0.00016034,-0.00011893,0.00046679,0.00032220,-0
 .00024408,-0.00084006,0.00014874,0.00037397,0.02080288,0.02757012,0.06
 774808,-0.00024583,0.00010207,-0.00005110,0.00073056,-0.00040399,0.000
 19636,-0.00000695,0.00026212,-0.00047468,0.00126119,-0.00114535,-0.001
 43026,0.00380139,0.00949217,0.03966722,-0.06470887,-0.00732832,-0.0143
 1627,-0.00777399,0.00341846,-0.02415229,0.00591358,-0.00032992,-0.0058
 5688,-0.00101852,0.00057326,0.00100150,-0.00269958,-0.00065479,0.00192
 463,0.00296935,0.00141337,-0.00098954,-0.00055415,0.00142142,0.0014431
 7,-0.00054086,-0.00117141,-0.00082977,0.00012098,-0.00033894,-0.000352
 71,-0.00615982,-0.00027208,0.00065950,0.00175544,-0.00532067,-0.017327
 42,0.06715607,0.00037768,-0.00026690,0.00037364,-0.00112490,-0.0000628
 8,-0.00129346,0.00089833,-0.00006271,0.00050951,-0.00049100,0.00018159
 ,0.00008493,-0.00218952,0.00021820,-0.00077648,-0.00698896,-0.08943752
 ,-0.09136202,0.01029953,0.00138112,0.03929382,-0.00446218,0.00253897,0
 .00213398,0.00077313,-0.00136912,-0.00042378,0.00203859,-0.00019910,-0
 .00071844,0.00042443,0.00062592,0.00111105,-0.00035596,-0.00012816,0.0
 0021257,0.00010328,-0.00001066,-0.00006630,0.00020261,0.00015260,-0.00
 008004,0.00043651,0.00035503,0.00048975,-0.00022416,-0.00430241,-0.030
 48231,0.00028259,0.09038604,0.00002969,0.00000480,0.00007062,-0.000093
 76,-0.00036104,-0.00021964,0.00011221,0.00017570,0.00027438,0.00051588
 ,0.00010719,0.00131891,-0.00055392,-0.00403348,-0.01327973,-0.01818688
 ,-0.08131219,-0.34501089,-0.00817217,0.00683374,-0.01722370,0.00402110
 ,0.00116154,-0.00411782,-0.00066733,-0.00060590,0.00100072,0.00069327,
 -0.00148364,0.00311461,-0.00151666,-0.00080999,0.00119173,0.00124693,0
 .00010374,-0.00067880,-0.00042757,0.00038441,0.00068447,-0.00028024,-0
 .00010079,0.00009305,0.00139219,0.00010916,0.00046478,0.00099870,-0.00
 116684,0.00051456,0.02088855,0.08099359,0.37180275||0.00000170,0.00000
 340,0.00000574,0.00000721,-0.00001986,-0.00000546,-0.00000746,0.000017
 92,0.00000148,-0.00000977,0.00001987,-0.00000892,0.00001205,-0.0000192
 6,0.00001014,-0.00000612,0.00000744,-0.00000377,0.00000225,-0.00000676
 ,0.00000302,0.00000599,0.00000335,-0.00000848,-0.00000473,0.00000308,0
 .00000163,0.00000249,-0.00000215,0.00000267,0.00000125,0.00001012,0.00
 000757,-0.00002117,-0.00003236,-0.00000335,-0.00000153,0.00000179,-0.0
 0000019,0.00001659,0.00002486,0.00000305,-0.00000107,-0.00000374,-0.00
 000365,0.00000168,-0.00000444,0.00000077,0.00000063,-0.00000326,-0.000
 00224|||@
 The archive entry for this job was punched.


 ALL PAPERS THAT YOU SAVE WILL NEVER BE NEEDED UNTIL
 SUCH TIME AS THEY ARE DISPOSED OF, WHEN THEY BECOME
 ESSENTIAL.

           -- JOHN CORCORAN IN
              PAUL DICKSON'S "THE OFFICIAL RULES"
 Job cpu time:       0 days  0 hours  0 minutes 39.0 seconds.
 Elapsed time:       0 days  0 hours  0 minutes 37.7 seconds.
 File lengths (MBytes):  RWF=    107 Int=      0 D2E=      0 Chk=      5 Scr=      1
 Normal termination of Gaussian 16 at Tue Jun 11 17:27:23 2024.
