 Entering Link 1 = C:\G16W\l1.exe PID=     14448.
  
 Copyright (c) 1988-2019, Gaussian, Inc.  All Rights Reserved.
  
 This is part of the Gaussian(R) 16 program.  It is based on
 the Gaussian(R) 09 system (copyright 2009, Gaussian, Inc.),
 the Gaussian(R) 03 system (copyright 2003, Gaussian, Inc.),
 the Gaussian(R) 98 system (copyright 1998, Gaussian, Inc.),
 the Gaussian(R) 94 system (copyright 1995, Gaussian, Inc.),
 the Gaussian 92(TM) system (copyright 1992, Gaussian, Inc.),
 the Gaussian 90(TM) system (copyright 1990, Gaussian, Inc.),
 the Gaussian 88(TM) system (copyright 1988, Gaussian, Inc.),
 the Gaussian 86(TM) system (copyright 1986, Carnegie Mellon
 University), and the Gaussian 82(TM) system (copyright 1983,
 Carnegie Mellon University). Gaussian is a federally registered
 trademark of Gaussian, Inc.
  
 This software contains proprietary and confidential information,
 including trade secrets, belonging to Gaussian, Inc.
  
 This software is provided under written license and may be
 used, copied, transmitted, or stored only in accord with that
 written license.
  
 The following legend is applicable only to US Government
 contracts under FAR:
  
                    RESTRICTED RIGHTS LEGEND
  
 Use, reproduction and disclosure by the US Government is
 subject to restrictions as set forth in subparagraphs (a)
 and (c) of the Commercial Computer Software - Restricted
 Rights clause in FAR 52.227-19.
  
 Gaussian, Inc.
 340 Quinnipiac St., Bldg. 40, Wallingford CT 06492
  
  
 ---------------------------------------------------------------
 Warning -- This program may not be used in any manner that
 competes with the business of Gaussian, Inc. or will provide
 assistance to any competitor of Gaussian, Inc.  The licensee
 of this program is prohibited from giving any competitor of
 Gaussian, Inc. access to this program.  By using this program,
 the user acknowledges that Gaussian, Inc. is engaged in the
 business of creating and licensing software in the field of
 computational chemistry and represents and warrants to the
 licensee that it is not a competitor of Gaussian, Inc. and that
 it will not use this program in any manner prohibited above.
 ---------------------------------------------------------------
  

 Cite this work as:
 Gaussian 16, Revision C.01,
 M. J. Frisch, G. W. Trucks, H. B. Schlegel, G. E. Scuseria, 
 M. A. Robb, J. R. Cheeseman, G. Scalmani, V. Barone, 
 G. A. Petersson, H. Nakatsuji, X. Li, M. Caricato, A. V. Marenich, 
 J. Bloino, B. G. Janesko, R. Gomperts, B. Mennucci, H. P. Hratchian, 
 J. V. Ortiz, A. F. Izmaylov, J. L. Sonnenberg, D. Williams-Young, 
 F. Ding, F. Lipparini, F. Egidi, J. Goings, B. Peng, A. Petrone, 
 T. Henderson, D. Ranasinghe, V. G. Zakrzewski, J. Gao, N. Rega, 
 G. Zheng, W. Liang, M. Hada, M. Ehara, K. Toyota, R. Fukuda, 
 J. Hasegawa, M. Ishida, T. Nakajima, Y. Honda, O. Kitao, H. Nakai, 
 T. Vreven, K. Throssell, J. A. Montgomery, Jr., J. E. Peralta, 
 F. Ogliaro, M. J. Bearpark, J. J. Heyd, E. N. Brothers, K. N. Kudin, 
 V. N. Staroverov, T. A. Keith, R. Kobayashi, J. Normand, 
 K. Raghavachari, A. P. Rendell, J. C. Burant, S. S. Iyengar, 
 J. Tomasi, M. Cossi, J. M. Millam, M. Klene, C. Adamo, R. Cammi, 
 J. W. Ochterski, R. L. Martin, K. Morokuma, O. Farkas, 
 J. B. Foresman, and D. J. Fox, Gaussian, Inc., Wallingford CT, 2019.
 
 ******************************************
 Gaussian 16:  EM64W-G16RevC.01 30-May-2019
                11-Jun-2024 
 ******************************************
 %nprocshared=24
 Will use up to   24 processors via shared memory.
 %mem=120GB
 ----------------------
 # HF/6-31G(d) Opt Freq
 ----------------------
 1/18=20,19=15,38=1/1,3;
 2/9=110,12=2,17=6,18=5,40=1/2;
 3/5=1,6=6,7=1,11=9,25=1,30=1,71=1/1,2,3;
 4//1;
 5/5=2,38=5/2;
 6/7=2,8=2,9=2,10=2,28=1/1;
 7//1,2,3,16;
 1/18=20,19=15/3(2);
 2/9=110/2;
 99//99;
 2/9=110/2;
 3/5=1,6=6,7=1,11=9,25=1,30=1,71=1/1,2,3;
 4/5=5,16=3,69=1/1;
 5/5=2,38=5/2;
 7//1,2,3,16;
 1/18=20,19=15/3(-5);
 2/9=110/2;
 6/7=2,8=2,9=2,10=2,19=2,28=1/1;
 99/9=1/99;
 ----------------------------------------------------------------------
 O=[N+1]([O-1])OCC(CO[N+1]([O-1])=O)O[N+1]([O-1])=O geometry optimizati
 on
 ----------------------------------------------------------------------
 Symbolic Z-matrix:
 Charge =  0 Multiplicity = 1
 O                     3.6664   -0.2728    0.91755 
 N                     3.02168  -1.23432   0.49829 
 O                     3.33061  -2.41967   0.41321 
 O                     1.70763  -0.97545   0.03564 
 C                     1.35866   0.40108   0.12002 
 C                    -0.07028   0.61916  -0.41151 
 C                    -1.1194   -0.03601   0.50597 
 O                    -1.02156  -1.45296   0.41334 
 N                    -1.95913  -2.11998   1.24015 
 O                    -2.69063  -1.41604   1.93697 
 O                    -1.89197  -3.34243   1.14462 
 O                    -0.27151   2.03618  -0.44814 
 N                    -1.21772   2.45575  -1.4158 
 O                    -1.80305   1.5753   -2.04487 
 O                    -1.32868   3.67696  -1.47021 
 H                     1.41897   0.75643   1.15744 
 H                     2.04903   1.00158  -0.48762 
 H                    -0.10274   0.16092  -1.40951 
 H                    -0.95257   0.29962   1.53825 
 H                    -2.12371   0.28668   0.20586 
 

 GradGradGradGradGradGradGradGradGradGradGradGradGradGradGradGradGradGrad
 Berny optimization.
 Initialization pass.
                           ----------------------------
                           !    Initial Parameters    !
                           ! (Angstroms and Degrees)  !
 --------------------------                            --------------------------
 ! Name  Definition              Value          Derivative Info.                !
 --------------------------------------------------------------------------------
 ! R1    R(1,2)                  1.2312         estimate D2E/DX2                !
 ! R2    R(2,3)                  1.2279         estimate D2E/DX2                !
 ! R3    R(2,4)                  1.417          estimate D2E/DX2                !
 ! R4    R(4,5)                  1.4226         estimate D2E/DX2                !
 ! R5    R(5,6)                  1.5401         estimate D2E/DX2                !
 ! R6    R(5,16)                 1.0982         estimate D2E/DX2                !
 ! R7    R(5,17)                 1.0984         estimate D2E/DX2                !
 ! R8    R(6,7)                  1.54           estimate D2E/DX2                !
 ! R9    R(6,12)                 1.4317         estimate D2E/DX2                !
 ! R10   R(6,18)                 1.0987         estimate D2E/DX2                !
 ! R11   R(7,8)                  1.4233         estimate D2E/DX2                !
 ! R12   R(7,19)                 1.0982         estimate D2E/DX2                !
 ! R13   R(7,20)                 1.0967         estimate D2E/DX2                !
 ! R14   R(8,9)                  1.4169         estimate D2E/DX2                !
 ! R15   R(9,10)                 1.2313         estimate D2E/DX2                !
 ! R16   R(9,11)                 1.228          estimate D2E/DX2                !
 ! R17   R(12,13)                1.4169         estimate D2E/DX2                !
 ! R18   R(13,14)                1.2303         estimate D2E/DX2                !
 ! R19   R(13,15)                1.2275         estimate D2E/DX2                !
 ! A1    A(1,2,3)              130.2204         estimate D2E/DX2                !
 ! A2    A(1,2,4)              117.0076         estimate D2E/DX2                !
 ! A3    A(3,2,4)              112.7715         estimate D2E/DX2                !
 ! A4    A(2,4,5)              112.6379         estimate D2E/DX2                !
 ! A5    A(4,5,6)              110.1299         estimate D2E/DX2                !
 ! A6    A(4,5,16)             110.8336         estimate D2E/DX2                !
 ! A7    A(4,5,17)             109.9998         estimate D2E/DX2                !
 ! A8    A(6,5,16)             109.3381         estimate D2E/DX2                !
 ! A9    A(6,5,17)             108.3498         estimate D2E/DX2                !
 ! A10   A(16,5,17)            108.1288         estimate D2E/DX2                !
 ! A11   A(5,6,7)              111.4821         estimate D2E/DX2                !
 ! A12   A(5,6,12)             106.2239         estimate D2E/DX2                !
 ! A13   A(5,6,18)             106.3708         estimate D2E/DX2                !
 ! A14   A(7,6,12)             109.911          estimate D2E/DX2                !
 ! A15   A(7,6,18)             110.0966         estimate D2E/DX2                !
 ! A16   A(12,6,18)            112.6696         estimate D2E/DX2                !
 ! A17   A(6,7,8)              109.7503         estimate D2E/DX2                !
 ! A18   A(6,7,19)             109.0558         estimate D2E/DX2                !
 ! A19   A(6,7,20)             109.6112         estimate D2E/DX2                !
 ! A20   A(8,7,19)             110.791          estimate D2E/DX2                !
 ! A21   A(8,7,20)             109.7578         estimate D2E/DX2                !
 ! A22   A(19,7,20)            107.8422         estimate D2E/DX2                !
 ! A23   A(7,8,9)              112.6558         estimate D2E/DX2                !
 ! A24   A(8,9,10)             117.0132         estimate D2E/DX2                !
 ! A25   A(8,9,11)             112.7712         estimate D2E/DX2                !
 ! A26   A(10,9,11)            130.2117         estimate D2E/DX2                !
 ! A27   A(6,12,13)            113.8542         estimate D2E/DX2                !
 ! A28   A(12,13,14)           117.0648         estimate D2E/DX2                !
 ! A29   A(12,13,15)           112.6589         estimate D2E/DX2                !
 ! A30   A(14,13,15)           130.2673         estimate D2E/DX2                !
 ! D1    D(1,2,3,4)            179.7414         estimate D2E/DX2                !
 ! D2    D(1,2,4,5)              0.9533         estimate D2E/DX2                !
 ! D3    D(3,2,4,5)           -179.2684         estimate D2E/DX2                !
 ! D4    D(2,4,5,6)            179.3276         estimate D2E/DX2                !
 ! D5    D(2,4,5,16)           -59.5519         estimate D2E/DX2                !
 ! D6    D(2,4,5,17)            59.9722         estimate D2E/DX2                !
 ! D7    D(4,5,6,7)             67.437          estimate D2E/DX2                !
 ! D8    D(4,5,6,12)          -172.8486         estimate D2E/DX2                !
 ! D9    D(4,5,6,18)           -52.594          estimate D2E/DX2                !
 ! D10   D(16,5,6,7)           -54.5736         estimate D2E/DX2                !
 ! D11   D(16,5,6,12)           65.1408         estimate D2E/DX2                !
 ! D12   D(16,5,6,18)         -174.6046         estimate D2E/DX2                !
 ! D13   D(17,5,6,7)          -172.208          estimate D2E/DX2                !
 ! D14   D(17,5,6,12)          -52.4935         estimate D2E/DX2                !
 ! D15   D(17,5,6,18)           67.761          estimate D2E/DX2                !
 ! D16   D(5,6,7,8)            -69.5469         estimate D2E/DX2                !
 ! D17   D(5,6,7,19)            51.9888         estimate D2E/DX2                !
 ! D18   D(5,6,7,20)           169.8412         estimate D2E/DX2                !
 ! D19   D(12,6,7,8)           172.9442         estimate D2E/DX2                !
 ! D20   D(12,6,7,19)          -65.5201         estimate D2E/DX2                !
 ! D21   D(12,6,7,20)           52.3323         estimate D2E/DX2                !
 ! D22   D(18,6,7,8)            48.262          estimate D2E/DX2                !
 ! D23   D(18,6,7,19)          169.7977         estimate D2E/DX2                !
 ! D24   D(18,6,7,20)          -72.3499         estimate D2E/DX2                !
 ! D25   D(5,6,12,13)          153.2553         estimate D2E/DX2                !
 ! D26   D(7,6,12,13)          -86.0114         estimate D2E/DX2                !
 ! D27   D(18,6,12,13)          37.1733         estimate D2E/DX2                !
 ! D28   D(6,7,8,9)            179.7604         estimate D2E/DX2                !
 ! D29   D(19,7,8,9)            59.2709         estimate D2E/DX2                !
 ! D30   D(20,7,8,9)           -59.7166         estimate D2E/DX2                !
 ! D31   D(7,8,9,10)            -1.8196         estimate D2E/DX2                !
 ! D32   D(7,8,9,11)           178.8293         estimate D2E/DX2                !
 ! D33   D(8,9,10,11)         -179.2165         estimate D2E/DX2                !
 ! D34   D(6,12,13,14)           4.0682         estimate D2E/DX2                !
 ! D35   D(6,12,13,15)        -176.9077         estimate D2E/DX2                !
 ! D36   D(12,13,14,15)        178.8197         estimate D2E/DX2                !
 --------------------------------------------------------------------------------
 Trust Radius=3.00D-01 FncErr=1.00D-07 GrdErr=1.00D-07 EigMax=2.50D+02 EigMin=1.00D-04
 Number of steps in this run=     95 maximum allowed number of steps=    120.
 GradGradGradGradGradGradGradGradGradGradGradGradGradGradGradGradGradGrad

                          Input orientation:                          
 ---------------------------------------------------------------------
 Center     Atomic      Atomic             Coordinates (Angstroms)
 Number     Number       Type             X           Y           Z
 ---------------------------------------------------------------------
      1          8           0        3.666397   -0.272804    0.917555
      2          7           0        3.021679   -1.234325    0.498294
      3          8           0        3.330607   -2.419670    0.413205
      4          8           0        1.707628   -0.975450    0.035637
      5          6           0        1.358657    0.401075    0.120023
      6          6           0       -0.070283    0.619163   -0.411506
      7          6           0       -1.119402   -0.036006    0.505968
      8          8           0       -1.021561   -1.452957    0.413341
      9          7           0       -1.959130   -2.119983    1.240149
     10          8           0       -2.690630   -1.416037    1.936970
     11          8           0       -1.891975   -3.342432    1.144615
     12          8           0       -0.271514    2.036179   -0.448143
     13          7           0       -1.217718    2.455751   -1.415802
     14          8           0       -1.803050    1.575299   -2.044865
     15          8           0       -1.328681    3.676965   -1.470205
     16          1           0        1.418970    0.756433    1.157441
     17          1           0        2.049032    1.001583   -0.487622
     18          1           0       -0.102742    0.160918   -1.409513
     19          1           0       -0.952572    0.299616    1.538254
     20          1           0       -2.123714    0.286683    0.205863
 ---------------------------------------------------------------------
                    Distance matrix (angstroms):
                    1          2          3          4          5
     1  O    0.000000
     2  N    1.231244   0.000000
     3  O    2.230730   1.227892   0.000000
     4  O    2.260148   1.416968   2.205082   0.000000
     5  C    2.532950   2.362894   3.454149   1.422577   0.000000
     6  C    4.065069   3.717981   4.634728   2.429752   1.540115
     7  C    4.809298   4.310984   5.049063   3.015935   2.545735
     8  O    4.860447   4.050038   4.458240   2.796274   3.031321
     9  N    5.929814   5.113042   5.362366   4.025658   4.314872
    10  O    6.538959   5.893495   6.291616   4.811846   4.795823
    11  O    6.353713   5.385707   5.353672   4.448547   5.062631
    12  O    4.764838   4.736777   5.794116   3.636063   2.377779
    13  N    6.061695   5.937416   6.913917   4.736820   3.635678
    14  O    6.488935   6.135117   6.953871   4.812450   4.007734
    15  O    6.800947   6.849919   7.900959   5.756014   4.525711
    16  H    2.483506   2.639369   3.780988   2.083552   1.098250
    17  H    2.492881   2.630087   3.762830   2.073407   1.098390
    18  H    4.450817   3.917708   4.665792   2.580161   2.129047
    19  H    4.695510   4.385107   5.196717   3.310637   2.713568
    20  H    5.860453   5.373458   6.092368   4.037466   3.485306
                    6          7          8          9         10
     6  C    0.000000
     7  C    1.540018   0.000000
     8  O    2.424662   1.423342   0.000000
     9  N    3.714650   2.363710   1.416887   0.000000
    10  O    4.064923   2.533972   2.260221   1.231337   0.000000
    11  O    4.629720   3.455024   2.205107   1.228014   2.230846
    12  O    1.431702   2.433761   3.671348   4.792918   4.843417
    13  N    2.387106   3.148288   4.319982   5.342388   5.329287
    14  O    2.566036   3.093611   3.977919   4.946796   5.058746
    15  O    3.471968   4.211319   5.473405   6.430248   6.277135
    16  H    2.167559   2.737829   3.375097   4.437586   4.713396
    17  H    2.154886   3.478906   4.032995   5.366072   5.847045
    18  H    1.098663   2.177486   2.602233   3.958459   4.514743
    19  H    2.163818   1.098221   2.083675   2.637515   2.474527
    20  H    2.169854   1.096738   2.069814   2.624667   2.493468
                   11         12         13         14         15
    11  O    0.000000
    12  O    5.838855   0.000000
    13  N    6.374111   1.416936   0.000000
    14  O    5.862147   2.259986   1.230256   0.000000
    15  O    7.511758   2.203268   1.227451   2.229856   0.000000
    16  H    5.269081   2.659584   4.057263   4.615921   4.794123
    17  H    6.088202   2.541039   3.694290   4.194365   4.419512
    18  H    4.690243   2.114077   2.551366   2.301129   3.724137
    19  H    3.781791   2.724934   3.666834   3.897361   4.538587
    20  H    3.755720   2.630419   2.855781   2.613261   3.864621
                   16         17         18         19         20
    16  H    0.000000
    17  H    1.778570   0.000000
    18  H    3.042942   2.487314   0.000000
    19  H    2.444977   3.688707   3.070957   0.000000
    20  H    3.698212   4.289966   2.590286   1.773980   0.000000
 Stoichiometry    C3H5N3O9
 Framework group  C1[X(C3H5N3O9)]
 Deg. of freedom    54
 Full point group                 C1      NOp   1
 Largest Abelian subgroup         C1      NOp   1
 Largest concise Abelian subgroup C1      NOp   1
                         Standard orientation:                         
 ---------------------------------------------------------------------
 Center     Atomic      Atomic             Coordinates (Angstroms)
 Number     Number       Type             X           Y           Z
 ---------------------------------------------------------------------
      1          8           0       -2.669705   -2.559289    0.764266
      2          7           0       -2.798593   -1.649738   -0.055532
      3          8           0       -3.796126   -1.257897   -0.654787
      4          8           0       -1.635692   -0.909558   -0.383545
      5          6           0       -0.478588   -1.376491    0.299688
      6          6           0        0.751003   -0.544883   -0.110786
      7          6           0        0.643611    0.906677    0.392297
      8          8           0       -0.381190    1.588763   -0.322157
      9          7           0       -0.536674    2.933233    0.097123
     10          8           0        0.183851    3.318695    1.018239
     11          8           0       -1.404721    3.530454   -0.533622
     12          8           0        1.884160   -1.185091    0.485752
     13          7           0        3.097685   -0.970113   -0.213425
     14          8           0        3.058621   -0.214068   -1.183167
     15          8           0        4.042635   -1.577194    0.281710
     16          1           0       -0.614651   -1.311866    1.387559
     17          1           0       -0.287761   -2.426769    0.040917
     18          1           0        0.784151   -0.562387   -1.208810
     19          1           0        0.428441    0.897931    1.469197
     20          1           0        1.602080    1.419080    0.245276
 ---------------------------------------------------------------------
 Rotational constants (GHZ):           0.5498015           0.4094492           0.2530840
 Standard basis: 6-31G(d) (6D, 7F)
 There are   235 symmetry adapted cartesian basis functions of A   symmetry.
 There are   235 symmetry adapted basis functions of A   symmetry.
   235 basis functions,   440 primitive gaussians,   235 cartesian basis functions
    58 alpha electrons       58 beta electrons
       nuclear repulsion energy      1069.0671718436 Hartrees.
 NAtoms=   20 NActive=   20 NUniq=   20 SFac= 1.00D+00 NAtFMM=   60 NAOKFM=F Big=F
 Integral buffers will be    131072 words long.
 Raffenetti 1 integral format.
 Two-electron integral symmetry is turned on.
 One-electron integrals computed using PRISM.
 NBasis=   235 RedAO= T EigKep=  2.54D-03  NBF=   235
 NBsUse=   235 1.00D-06 EigRej= -1.00D+00 NBFU=   235
 ExpMin= 1.61D-01 ExpMax= 5.48D+03 ExpMxC= 8.25D+02 IAcc=3 IRadAn=         5 AccDes= 0.00D+00
 Harris functional with IExCor=  205 and IRadAn=       5 diagonalized for initial guess.
 HarFok:  IExCor=  205 AccDes= 0.00D+00 IRadAn=         5 IDoV= 1 UseB2=F ITyADJ=14
 ICtDFT=  3500011 ScaDFX=  1.000000  1.000000  1.000000  1.000000
 FoFCou: FMM=F IPFlag=           0 FMFlag=      100000 FMFlg1=           0
         NFxFlg=           0 DoJE=T BraDBF=F KetDBF=T FulRan=T
         wScrn=  0.000000 ICntrl=       500 IOpCl=  0 I1Cent=   200000004 NGrid=           0
         NMat0=    1 NMatS0=      1 NMatT0=    0 NMatD0=    1 NMtDS0=    0 NMtDT0=    0
 Petite list used in FoFCou.
 Requested convergence on RMS density matrix=1.00D-08 within 128 cycles.
 Requested convergence on MAX density matrix=1.00D-06.
 Requested convergence on             energy=1.00D-06.
 No special actions if energy rises.
 Integral accuracy reduced to 1.0D-05 until final iterations.
 Initial convergence to 1.0D-05 achieved.  Increase integral accuracy.
 SCF Done:  E(RHF) =  -953.046899970     A.U. after   17 cycles
            NFock= 17  Conv=0.61D-08     -V/T= 2.0043

 **********************************************************************

            Population analysis using the SCF Density.

 **********************************************************************

 Orbital symmetries:
       Occupied  (A) (A) (A) (A) (A) (A) (A) (A) (A) (A) (A) (A)
                 (A) (A) (A) (A) (A) (A) (A) (A) (A) (A) (A) (A)
                 (A) (A) (A) (A) (A) (A) (A) (A) (A) (A) (A) (A)
                 (A) (A) (A) (A) (A) (A) (A) (A) (A) (A) (A) (A)
                 (A) (A) (A) (A) (A) (A) (A) (A) (A) (A)
       Virtual   (A) (A) (A) (A) (A) (A) (A) (A) (A) (A) (A) (A)
                 (A) (A) (A) (A) (A) (A) (A) (A) (A) (A) (A) (A)
                 (A) (A) (A) (A) (A) (A) (A) (A) (A) (A) (A) (A)
                 (A) (A) (A) (A) (A) (A) (A) (A) (A) (A) (A) (A)
                 (A) (A) (A) (A) (A) (A) (A) (A) (A) (A) (A) (A)
                 (A) (A) (A) (A) (A) (A) (A) (A) (A) (A) (A) (A)
                 (A) (A) (A) (A) (A) (A) (A) (A) (A) (A) (A) (A)
                 (A) (A) (A) (A) (A) (A) (A) (A) (A) (A) (A) (A)
                 (A) (A) (A) (A) (A) (A) (A) (A) (A) (A) (A) (A)
                 (A) (A) (A) (A) (A) (A) (A) (A) (A) (A) (A) (A)
                 (A) (A) (A) (A) (A) (A) (A) (A) (A) (A) (A) (A)
                 (A) (A) (A) (A) (A) (A) (A) (A) (A) (A) (A) (A)
                 (A) (A) (A) (A) (A) (A) (A) (A) (A) (A) (A) (A)
                 (A) (A) (A) (A) (A) (A) (A) (A) (A) (A) (A) (A)
                 (A) (A) (A) (A) (A) (A) (A) (A) (A)
 The electronic state is 1-A.
 Alpha  occ. eigenvalues --  -20.73118 -20.71258 -20.70875 -20.68177 -20.68078
 Alpha  occ. eigenvalues --  -20.66758 -20.66498 -20.66462 -20.66182 -15.97461
 Alpha  occ. eigenvalues --  -15.95948 -15.95619 -11.38035 -11.35911 -11.35394
 Alpha  occ. eigenvalues --   -1.69126  -1.67550  -1.67219  -1.48180  -1.47124
 Alpha  occ. eigenvalues --   -1.46292  -1.45751  -1.45514  -1.45212  -1.14478
 Alpha  occ. eigenvalues --   -1.04472  -1.00244  -0.92780  -0.91350  -0.88013
 Alpha  occ. eigenvalues --   -0.84767  -0.82456  -0.82441  -0.80775  -0.80193
 Alpha  occ. eigenvalues --   -0.79488  -0.79283  -0.77878  -0.77304  -0.72295
 Alpha  occ. eigenvalues --   -0.70292  -0.67203  -0.66065  -0.65774  -0.62296
 Alpha  occ. eigenvalues --   -0.59359  -0.57068  -0.56824  -0.55579  -0.55240
 Alpha  occ. eigenvalues --   -0.54375  -0.54172  -0.53531  -0.53098  -0.51961
 Alpha  occ. eigenvalues --   -0.51051  -0.49662  -0.49338
 Alpha virt. eigenvalues --    0.05228   0.06675   0.07078   0.15649   0.18701
 Alpha virt. eigenvalues --    0.22083   0.22649   0.25259   0.27058   0.27367
 Alpha virt. eigenvalues --    0.28418   0.29585   0.32877   0.34685   0.39324
 Alpha virt. eigenvalues --    0.41966   0.43488   0.45479   0.45761   0.55819
 Alpha virt. eigenvalues --    0.57320   0.57824   0.66451   0.67079   0.71710
 Alpha virt. eigenvalues --    0.73978   0.74872   0.77499   0.79404   0.81079
 Alpha virt. eigenvalues --    0.81922   0.82405   0.84063   0.85242   0.86179
 Alpha virt. eigenvalues --    0.87409   0.89509   0.90471   0.92478   0.92812
 Alpha virt. eigenvalues --    0.96184   1.01403   1.02830   1.03533   1.03779
 Alpha virt. eigenvalues --    1.04390   1.05591   1.05933   1.06370   1.07895
 Alpha virt. eigenvalues --    1.08861   1.11494   1.12449   1.13311   1.14444
 Alpha virt. eigenvalues --    1.16002   1.17516   1.18370   1.19506   1.19842
 Alpha virt. eigenvalues --    1.20790   1.21420   1.22200   1.23719   1.24085
 Alpha virt. eigenvalues --    1.24862   1.25533   1.28053   1.30128   1.30601
 Alpha virt. eigenvalues --    1.32002   1.34990   1.38082   1.42251   1.42601
 Alpha virt. eigenvalues --    1.48459   1.53035   1.54636   1.57526   1.58527
 Alpha virt. eigenvalues --    1.58991   1.60777   1.62585   1.65067   1.66774
 Alpha virt. eigenvalues --    1.69030   1.71429   1.72156   1.73525   1.74131
 Alpha virt. eigenvalues --    1.83229   1.84063   1.87594   1.93358   1.95477
 Alpha virt. eigenvalues --    1.96149   1.97234   1.99806   2.01790   2.02319
 Alpha virt. eigenvalues --    2.03044   2.04001   2.04497   2.04693   2.05078
 Alpha virt. eigenvalues --    2.05473   2.05672   2.06561   2.09577   2.13169
 Alpha virt. eigenvalues --    2.16270   2.19304   2.20331   2.23254   2.23961
 Alpha virt. eigenvalues --    2.25058   2.26997   2.28180   2.30102   2.31182
 Alpha virt. eigenvalues --    2.32139   2.34249   2.35464   2.36115   2.37836
 Alpha virt. eigenvalues --    2.38658   2.40301   2.46587   2.47909   2.48961
 Alpha virt. eigenvalues --    2.50885   2.54173   2.59642   2.60957   2.66425
 Alpha virt. eigenvalues --    2.70266   2.77801   2.79568   2.80457   2.86354
 Alpha virt. eigenvalues --    2.96813   2.98920   2.99496   2.99818   3.00334
 Alpha virt. eigenvalues --    3.00418   3.01618   3.08674   3.10215   3.11688
 Alpha virt. eigenvalues --    3.14372   3.15812   3.15965   3.16816   3.17442
 Alpha virt. eigenvalues --    3.17631   3.32132   3.33927   3.36453   3.38382
 Alpha virt. eigenvalues --    3.40158   3.43349   3.95558   3.96548   4.00241
 Alpha virt. eigenvalues --    4.16512   4.17309   4.18463   4.19369   4.21696
 Alpha virt. eigenvalues --    4.24281   4.33198   4.47031   4.50033   4.60007
 Alpha virt. eigenvalues --    4.78141   4.93888
          Condensed to atoms (all electrons):
               1          2          3          4          5          6
     1  O    8.264886   0.322321  -0.074523  -0.086890  -0.000264   0.000714
     2  N    0.322321   5.236958   0.376041   0.205136  -0.038245   0.002521
     3  O   -0.074523   0.376041   8.172182  -0.084528   0.003307  -0.000063
     4  O   -0.086890   0.205136  -0.084528   8.400947   0.133844  -0.029115
     5  C   -0.000264  -0.038245   0.003307   0.133844   4.924832   0.333363
     6  C    0.000714   0.002521  -0.000063  -0.029115   0.333363   4.966624
     7  C   -0.000009  -0.000238   0.000003   0.006863  -0.073372   0.320549
     8  O   -0.000001   0.000043  -0.000004  -0.003516   0.006671  -0.028267
     9  N    0.000000  -0.000001   0.000000   0.000048  -0.000240   0.002343
    10  O    0.000000   0.000000   0.000000   0.000000  -0.000008   0.000733
    11  O    0.000000   0.000000   0.000000  -0.000004   0.000002  -0.000057
    12  O    0.000002  -0.000009   0.000000   0.000559  -0.033209   0.132760
    13  N    0.000000   0.000000   0.000000  -0.000009   0.002381  -0.035280
    14  O    0.000000   0.000000   0.000000   0.000002   0.000321  -0.002714
    15  O    0.000000   0.000000   0.000000   0.000000  -0.000067   0.002981
    16  H    0.001633  -0.003492  -0.000006  -0.031403   0.390553  -0.034974
    17  H    0.002021  -0.003817   0.000009  -0.028989   0.398126  -0.039831
    18  H   -0.000006  -0.000135  -0.000003   0.002668  -0.039242   0.388240
    19  H   -0.000006  -0.000015   0.000001   0.000168  -0.006943  -0.036206
    20  H    0.000000   0.000002   0.000000  -0.000038   0.004056  -0.034179
               7          8          9         10         11         12
     1  O   -0.000009  -0.000001   0.000000   0.000000   0.000000   0.000002
     2  N   -0.000238   0.000043  -0.000001   0.000000   0.000000  -0.000009
     3  O    0.000003  -0.000004   0.000000   0.000000   0.000000   0.000000
     4  O    0.006863  -0.003516   0.000048   0.000000  -0.000004   0.000559
     5  C   -0.073372   0.006671  -0.000240  -0.000008   0.000002  -0.033209
     6  C    0.320549  -0.028267   0.002343   0.000733  -0.000057   0.132760
     7  C    4.964549   0.125055  -0.037063  -0.000476   0.003236  -0.034951
     8  O    0.125055   8.406818   0.205010  -0.086811  -0.084331   0.000736
     9  N   -0.037063   0.205010   5.235427   0.322160   0.375971  -0.000010
    10  O   -0.000476  -0.086811   0.322160   8.266558  -0.074399   0.000001
    11  O    0.003236  -0.084331   0.375971  -0.074399   8.174185   0.000000
    12  O   -0.034951   0.000736  -0.000010   0.000001   0.000000   8.430422
    13  N   -0.000487  -0.000028  -0.000001   0.000000   0.000000   0.197139
    14  O   -0.003154   0.000016   0.000000   0.000000   0.000000  -0.087537
    15  O   -0.000045   0.000000   0.000000   0.000000   0.000000  -0.083564
    16  H   -0.007398   0.000228  -0.000012  -0.000006   0.000000   0.000990
    17  H    0.004746  -0.000065   0.000002   0.000000   0.000000   0.002716
    18  H   -0.042335   0.003586  -0.000150  -0.000004  -0.000001  -0.020776
    19  H    0.389443  -0.031198  -0.003562   0.001818   0.000001   0.001752
    20  H    0.397079  -0.027447  -0.003615   0.002381   0.000015  -0.000141
              13         14         15         16         17         18
     1  O    0.000000   0.000000   0.000000   0.001633   0.002021  -0.000006
     2  N    0.000000   0.000000   0.000000  -0.003492  -0.003817  -0.000135
     3  O    0.000000   0.000000   0.000000  -0.000006   0.000009  -0.000003
     4  O   -0.000009   0.000002   0.000000  -0.031403  -0.028989   0.002668
     5  C    0.002381   0.000321  -0.000067   0.390553   0.398126  -0.039242
     6  C   -0.035280  -0.002714   0.002981  -0.034974  -0.039831   0.388240
     7  C   -0.000487  -0.003154  -0.000045  -0.007398   0.004746  -0.042335
     8  O   -0.000028   0.000016   0.000000   0.000228  -0.000065   0.003586
     9  N   -0.000001   0.000000   0.000000  -0.000012   0.000002  -0.000150
    10  O    0.000000   0.000000   0.000000  -0.000006   0.000000  -0.000004
    11  O    0.000000   0.000000   0.000000   0.000000   0.000000  -0.000001
    12  O    0.197139  -0.087537  -0.083564   0.000990   0.002716  -0.020776
    13  N    5.241476   0.320977   0.375783  -0.000117  -0.000153  -0.004637
    14  O    0.320977   8.264260  -0.075057  -0.000011   0.000023   0.004548
    15  O    0.375783  -0.075057   8.165720   0.000004  -0.000015   0.000051
    16  H   -0.000117  -0.000011   0.000004   0.488641  -0.029410   0.003943
    17  H   -0.000153   0.000023  -0.000015  -0.029410   0.468144  -0.003498
    18  H   -0.004637   0.004548   0.000051   0.003943  -0.003498   0.441002
    19  H    0.000019   0.000164  -0.000006   0.003862  -0.000087   0.003641
    20  H    0.000088   0.003433  -0.000093  -0.000089  -0.000060  -0.002625
              19         20
     1  O   -0.000006   0.000000
     2  N   -0.000015   0.000002
     3  O    0.000001   0.000000
     4  O    0.000168  -0.000038
     5  C   -0.006943   0.004056
     6  C   -0.036206  -0.034179
     7  C    0.389443   0.397079
     8  O   -0.031198  -0.027447
     9  N   -0.003562  -0.003615
    10  O    0.001818   0.002381
    11  O    0.000001   0.000015
    12  O    0.001752  -0.000141
    13  N    0.000019   0.000088
    14  O    0.000164   0.003433
    15  O   -0.000006  -0.000093
    16  H    0.003862  -0.000089
    17  H   -0.000087  -0.000060
    18  H    0.003641  -0.002625
    19  H    0.495114  -0.030694
    20  H   -0.030694   0.460118
 Mulliken charges:
               1
     1  O   -0.429880
     2  N    0.902930
     3  O   -0.392415
     4  O   -0.485742
     5  C   -0.005867
     6  C    0.089859
     7  C   -0.011997
     8  O   -0.486496
     9  N    0.903691
    10  O   -0.431946
    11  O   -0.394619
    12  O   -0.506879
    13  N    0.902848
    14  O   -0.425270
    15  O   -0.385692
    16  H    0.217062
    17  H    0.230137
    18  H    0.265733
    19  H    0.212734
    20  H    0.231810
 Sum of Mulliken charges =   0.00000
 Mulliken charges with hydrogens summed into heavy atoms:
               1
     1  O   -0.429880
     2  N    0.902930
     3  O   -0.392415
     4  O   -0.485742
     5  C    0.441332
     6  C    0.355592
     7  C    0.432547
     8  O   -0.486496
     9  N    0.903691
    10  O   -0.431946
    11  O   -0.394619
    12  O   -0.506879
    13  N    0.902848
    14  O   -0.425270
    15  O   -0.385692
 Electronic spatial extent (au):  <R**2>=           3956.2012
 Charge=              0.0000 electrons
 Dipole moment (field-independent basis, Debye):
    X=              1.8540    Y=             -1.8535    Z=              0.8810  Tot=              2.7657
 Quadrupole moment (field-independent basis, Debye-Ang):
   XX=           -106.7332   YY=            -96.5672   ZZ=            -84.9645
   XY=              2.2059   XZ=             -2.4476   YZ=              3.2018
 Traceless Quadrupole moment (field-independent basis, Debye-Ang):
   XX=            -10.6449   YY=             -0.4789   ZZ=             11.1238
   XY=              2.2059   XZ=             -2.4476   YZ=              3.2018
 Octapole moment (field-independent basis, Debye-Ang**2):
  XXX=             -5.3329  YYY=            -36.2445  ZZZ=              0.0153  XYY=             17.6109
  XXY=             33.0417  XXZ=             10.1107  XZZ=             -3.2276  YZZ=             -2.5332
  YYZ=            -17.2946  XYZ=             -4.1476
 Hexadecapole moment (field-independent basis, Debye-Ang**3):
 XXXX=          -2874.1493 YYYY=          -2057.9099 ZZZZ=           -231.7248 XXXY=              3.4137
 XXXZ=            -10.8267 YYYX=             13.1873 YYYZ=              0.8201 ZZZX=              4.8911
 ZZZY=             -3.3209 XXYY=           -807.8402 XXZZ=           -475.2365 YYZZ=           -364.4731
 XXYZ=             31.4663 YYXZ=             -9.4995 ZZXY=             -4.9288
 N-N= 1.069067171844D+03 E-N=-4.380773982490D+03  KE= 9.489227819635D+02
 Calling FoFJK, ICntrl=      2127 FMM=F ISym2X=0 I1Cent= 0 IOpClX= 0 NMat=1 NMatS=1 NMatT=0.
 ***** Axes restored to original set *****
 -------------------------------------------------------------------
 Center     Atomic                   Forces (Hartrees/Bohr)
 Number     Number              X              Y              Z
 -------------------------------------------------------------------
      1        8          -0.042217213   -0.071833522   -0.029302418
      2        7           0.014266838   -0.016422189    0.003621295
      3        8          -0.023173995    0.098033283    0.007681586
      4        8           0.043065213   -0.003579578    0.015653257
      5        6           0.010487824    0.035730354    0.006599909
      6        6           0.009353857   -0.044985878   -0.007906983
      7        6          -0.017096489    0.024098609    0.008359919
      8        8          -0.034430007   -0.018041935    0.029542845
      9        7          -0.004223091   -0.020242162    0.006597614
     10        8           0.049579430   -0.054385197   -0.048413469
     11        8          -0.007996926    0.099960824    0.009253371
     12        8          -0.029872274   -0.000646185   -0.034194395
     13        7          -0.015001438    0.020933726   -0.010106170
     14        8           0.039029861    0.067458536    0.041221047
     15        8           0.008523695   -0.101924739    0.002956312
     16        1           0.001884755   -0.006758969   -0.011497559
     17        1          -0.007083313   -0.008377459    0.007595742
     18        1          -0.005203526    0.012929178    0.010543487
     19        1          -0.001714830   -0.006472126   -0.011113898
     20        1           0.011821629   -0.005474570    0.002908507
 -------------------------------------------------------------------
 Cartesian Forces:  Max     0.101924739 RMS     0.033662928

 GradGradGradGradGradGradGradGradGradGradGradGradGradGradGradGradGradGrad
 Berny optimization.
 FormGI is forming the generalized inverse of G from B-inverse, IUseBI=4.
 Internal  Forces:  Max     0.102308409 RMS     0.027891674
 Search for a local minimum.
 Step number   1 out of a maximum of   95
 All quantities printed in internal units (Hartrees-Bohrs-Radians)
 Mixed Optimization -- RFO/linear search
 Second derivative matrix not updated -- first step.
 ITU=  0
     Eigenvalues ---    0.00235   0.00237   0.01070   0.01071   0.01071
     Eigenvalues ---    0.01272   0.01383   0.01393   0.02900   0.02900
     Eigenvalues ---    0.02912   0.04470   0.04929   0.05038   0.05059
     Eigenvalues ---    0.05867   0.05932   0.07050   0.11248   0.11255
     Eigenvalues ---    0.13755   0.13775   0.16264   0.19523   0.22013
     Eigenvalues ---    0.22039   0.24998   0.24999   0.25000   0.25000
     Eigenvalues ---    0.25000   0.25000   0.25000   0.25000   0.25000
     Eigenvalues ---    0.28509   0.28517   0.33830   0.33861   0.33876
     Eigenvalues ---    0.33880   0.34045   0.40746   0.41961   0.42075
     Eigenvalues ---    0.42920   0.42925   0.42933   0.90531   0.90570
     Eigenvalues ---    0.90980   0.91919   0.91970   0.92157
 RFO step:  Lambda=-8.25671727D-02 EMin= 2.35304798D-03
 Linear search not attempted -- first point.
 Maximum step size (   0.300) exceeded in Quadratic search.
    -- Step size scaled by   0.876
 Iteration  1 RMS(Cart)=  0.06258229 RMS(Int)=  0.00138490
 Iteration  2 RMS(Cart)=  0.00259791 RMS(Int)=  0.00030190
 Iteration  3 RMS(Cart)=  0.00000516 RMS(Int)=  0.00030189
 Iteration  4 RMS(Cart)=  0.00000000 RMS(Int)=  0.00030189
 Variable       Old X    -DE/DX   Delta X   Delta X   Delta X     New X
                                 (Linear)    (Quad)   (Total)
    R1        2.32671  -0.08818   0.00000  -0.07821  -0.07821   2.24851
    R2        2.32038  -0.10100   0.00000  -0.08832  -0.08832   2.23206
    R3        2.67768  -0.05507   0.00000  -0.09432  -0.09432   2.58336
    R4        2.68828  -0.00784   0.00000  -0.01364  -0.01364   2.67464
    R5        2.91040  -0.00624   0.00000  -0.01488  -0.01488   2.89551
    R6        2.07539  -0.01294   0.00000  -0.02693  -0.02693   2.04846
    R7        2.07566  -0.01323   0.00000  -0.02754  -0.02754   2.04812
    R8        2.91021  -0.00721   0.00000  -0.01719  -0.01719   2.89302
    R9        2.70552  -0.01441   0.00000  -0.02577  -0.02577   2.67976
   R10        2.07617  -0.01482   0.00000  -0.03086  -0.03086   2.04532
   R11        2.68973  -0.00686   0.00000  -0.01197  -0.01197   2.67775
   R12        2.07534  -0.01269   0.00000  -0.02639  -0.02639   2.04895
   R13        2.07253  -0.01323   0.00000  -0.02742  -0.02742   2.04512
   R14        2.67753  -0.05565   0.00000  -0.09528  -0.09528   2.58225
   R15        2.32689  -0.08794   0.00000  -0.07802  -0.07802   2.24887
   R16        2.32061  -0.10067   0.00000  -0.08808  -0.08808   2.23253
   R17        2.67762  -0.04901   0.00000  -0.08393  -0.08393   2.59369
   R18        2.32485  -0.08792   0.00000  -0.07766  -0.07766   2.24719
   R19        2.31955  -0.10231   0.00000  -0.08930  -0.08930   2.23024
    A1        2.27277  -0.00572   0.00000  -0.01506  -0.01506   2.25771
    A2        2.04217   0.00590   0.00000   0.01555   0.01555   2.05772
    A3        1.96823  -0.00018   0.00000  -0.00048  -0.00048   1.96775
    A4        1.96590   0.00684   0.00000   0.01803   0.01803   1.98393
    A5        1.92213  -0.02014   0.00000  -0.06052  -0.06040   1.86173
    A6        1.93441   0.00393   0.00000   0.00590   0.00624   1.94065
    A7        1.91986   0.00484   0.00000   0.00883   0.00888   1.92874
    A8        1.90831   0.00852   0.00000   0.02911   0.02886   1.93717
    A9        1.89106   0.00574   0.00000   0.01779   0.01745   1.90851
   A10        1.88720  -0.00245   0.00000   0.00057   0.00003   1.88724
   A11        1.94573   0.01543   0.00000   0.04993   0.04923   1.99496
   A12        1.85396  -0.01231   0.00000  -0.04762  -0.04702   1.80693
   A13        1.85652   0.00241   0.00000   0.02525   0.02433   1.88085
   A14        1.91831  -0.00349   0.00000  -0.01904  -0.01828   1.90003
   A15        1.92155  -0.00319   0.00000   0.00036  -0.00109   1.92046
   A16        1.96646   0.00163   0.00000  -0.00730  -0.00713   1.95933
   A17        1.91550  -0.01602   0.00000  -0.04887  -0.04886   1.86665
   A18        1.90338   0.00593   0.00000   0.02007   0.01992   1.92330
   A19        1.91308   0.00409   0.00000   0.01199   0.01175   1.92483
   A20        1.93367   0.00346   0.00000   0.00610   0.00625   1.93992
   A21        1.91563   0.00396   0.00000   0.00668   0.00664   1.92227
   A22        1.88220  -0.00104   0.00000   0.00537   0.00506   1.88727
   A23        1.96621   0.00777   0.00000   0.02048   0.02048   1.98669
   A24        2.04226   0.00564   0.00000   0.01487   0.01487   2.05713
   A25        1.96823   0.00044   0.00000   0.00119   0.00118   1.96941
   A26        2.27262  -0.00607   0.00000  -0.01599  -0.01600   2.25663
   A27        1.98713   0.01399   0.00000   0.03687   0.03687   2.02400
   A28        2.04317   0.00876   0.00000   0.02312   0.02311   2.06628
   A29        1.96627  -0.00247   0.00000  -0.00650  -0.00650   1.95977
   A30        2.27359  -0.00628   0.00000  -0.01652  -0.01652   2.25707
    D1        3.13708   0.00036   0.00000   0.00278   0.00277   3.13985
    D2        0.01664  -0.00014   0.00000  -0.00115  -0.00117   0.01547
    D3       -3.12882   0.00014   0.00000   0.00116   0.00117  -3.12765
    D4        3.12986  -0.00093   0.00000  -0.00488  -0.00495   3.12491
    D5       -1.03938  -0.00105   0.00000  -0.00474  -0.00458  -1.04396
    D6        1.04671   0.00151   0.00000   0.00539   0.00529   1.05201
    D7        1.17700   0.00349   0.00000   0.02634   0.02684   1.20384
    D8       -3.01678   0.00027   0.00000   0.00174   0.00153  -3.01524
    D9       -0.91794  -0.00289   0.00000  -0.01816  -0.01872  -0.93666
   D10       -0.95249   0.00599   0.00000   0.03895   0.03980  -0.91269
   D11        1.13692   0.00277   0.00000   0.01434   0.01449   1.15141
   D12       -3.04743  -0.00039   0.00000  -0.00556  -0.00577  -3.05320
   D13       -3.00560   0.00090   0.00000   0.01189   0.01231  -2.99329
   D14       -0.91618  -0.00232   0.00000  -0.01271  -0.01300  -0.92919
   D15        1.18265  -0.00548   0.00000  -0.03262  -0.03326   1.14939
   D16       -1.21382  -0.00660   0.00000  -0.03814  -0.03818  -1.25200
   D17        0.90738  -0.00859   0.00000  -0.04848  -0.04872   0.85866
   D18        2.96429  -0.00401   0.00000  -0.02330  -0.02332   2.94097
   D19        3.01844   0.00138   0.00000   0.00219   0.00237   3.02081
   D20       -1.14354  -0.00062   0.00000  -0.00815  -0.00817  -1.15171
   D21        0.91337   0.00397   0.00000   0.01703   0.01723   0.93060
   D22        0.84233   0.00395   0.00000   0.02445   0.02448   0.86681
   D23        2.96353   0.00195   0.00000   0.01411   0.01395   2.97748
   D24       -1.26274   0.00654   0.00000   0.03930   0.03935  -1.22340
   D25        2.67481  -0.00461   0.00000  -0.01041  -0.01061   2.66420
   D26       -1.50118   0.00465   0.00000   0.01062   0.01105  -1.49013
   D27        0.64880  -0.00090   0.00000  -0.00808  -0.00831   0.64049
   D28        3.13741   0.00079   0.00000   0.00501   0.00501  -3.14076
   D29        1.03447   0.00163   0.00000   0.00794   0.00788   1.04235
   D30       -1.04225  -0.00174   0.00000  -0.00672  -0.00666  -1.04891
   D31       -0.03176   0.00038   0.00000   0.00316   0.00319  -0.02857
   D32        3.12116  -0.00030   0.00000  -0.00240  -0.00243   3.11873
   D33       -3.12792  -0.00089   0.00000  -0.00690  -0.00687  -3.13479
   D34        0.07100  -0.00042   0.00000  -0.00356  -0.00359   0.06742
   D35       -3.08762   0.00024   0.00000   0.00191   0.00193  -3.08569
   D36        3.12099   0.00089   0.00000   0.00685   0.00683   3.12782
         Item               Value     Threshold  Converged?
 Maximum Force            0.102308     0.000450     NO 
 RMS     Force            0.027892     0.000300     NO 
 Maximum Displacement     0.225142     0.001800     NO 
 RMS     Displacement     0.063615     0.001200     NO 
 Predicted change in Energy=-4.487669D-02
 GradGradGradGradGradGradGradGradGradGradGradGradGradGradGradGradGradGrad

                          Input orientation:                          
 ---------------------------------------------------------------------
 Center     Atomic      Atomic             Coordinates (Angstroms)
 Number     Number       Type             X           Y           Z
 ---------------------------------------------------------------------
      1          8           0        3.630529   -0.316784    0.861675
      2          7           0        2.953391   -1.219599    0.484613
      3          8           0        3.211467   -2.369908    0.411730
      4          8           0        1.683310   -0.935350    0.066362
      5          6           0        1.359207    0.440991    0.128631
      6          6           0       -0.074710    0.578929   -0.393492
      7          6           0       -1.140829   -0.021051    0.526906
      8          8           0       -1.013737   -1.429845    0.442939
      9          7           0       -1.909077   -2.112075    1.217639
     10          8           0       -2.661472   -1.478297    1.887297
     11          8           0       -1.803947   -3.284362    1.115601
     12          8           0       -0.268039    1.981909   -0.465474
     13          7           0       -1.175024    2.416429   -1.399489
     14          8           0       -1.777802    1.603086   -2.023378
     15          8           0       -1.240622    3.593892   -1.445711
     16          1           0        1.441442    0.817466    1.141825
     17          1           0        2.027488    1.017304   -0.500592
     18          1           0       -0.118249    0.108539   -1.367292
     19          1           0       -0.994971    0.324962    1.544066
     20          1           0       -2.128352    0.283764    0.205803
 ---------------------------------------------------------------------
                    Distance matrix (angstroms):
                    1          2          3          4          5
     1  O    0.000000
     2  N    1.189859   0.000000
     3  O    2.143217   1.181154   0.000000
     4  O    2.192443   1.367055   2.124264   0.000000
     5  C    2.504092   2.329314   3.378189   1.415357   0.000000
     6  C    4.013296   3.629762   4.488093   2.365405   1.532240
     7  C    4.792221   4.266257   4.947006   3.003965   2.573380
     8  O    4.794106   3.972914   4.328630   2.767743   3.038039
     9  N    5.834125   4.997743   5.189984   3.951628   4.287862
    10  O    6.479991   5.793198   6.120758   4.742123   4.789826
    11  O    6.197138   5.224333   5.146458   4.333557   4.985770
    12  O    4.716370   4.640036   5.640457   3.549791   2.318474
    13  N    5.972994   5.815011   6.740240   4.642544   3.558066
    14  O    6.423354   6.053244   6.826949   4.773884   3.977743
    15  O    6.659244   6.669753   7.670599   5.599087   4.379321
    16  H    2.481352   2.620602   3.718249   2.070625   1.084000
    17  H    2.491044   2.613745   3.702342   2.062220   1.083816
    18  H    4.382069   3.824720   4.516041   2.527980   2.128659
    19  H    4.719400   4.370088   5.122365   3.308351   2.749376
    20  H    5.827138   5.306784   5.966410   4.004304   3.491954
                    6          7          8          9         10
     6  C    0.000000
     7  C    1.530921   0.000000
     8  O    2.369929   1.417005   0.000000
     9  N    3.633476   2.332316   1.366466   0.000000
    10  O    4.015659   2.507307   2.191700   1.190048   0.000000
    11  O    4.493622   3.381640   2.125121   1.181406   2.143066
    12  O    1.418066   2.399673   3.608511   4.720866   4.820486
    13  N    2.366247   3.107004   4.267831   5.281623   5.308614
    14  O    2.570203   3.089903   3.983113   4.931920   5.056597
    15  O    3.399488   4.119344   5.371817   6.332324   6.233367
    16  H    2.170902   2.783767   3.400993   4.451285   4.760269
    17  H    2.150088   3.488863   4.015948   5.314308   5.823777
    18  H    1.082335   2.156490   2.538792   3.849683   4.424747
    19  H    2.159980   1.084258   2.071758   2.623222   2.479270
    20  H    2.159565   1.082230   2.057925   2.609968   2.493291
                   11         12         13         14         15
    11  O    0.000000
    12  O    5.708977   0.000000
    13  N    6.262607   1.372520   0.000000
    14  O    5.808702   2.202261   1.189162   0.000000
    15  O    7.361253   2.122562   1.180195   2.141395   0.000000
    16  H    5.230510   2.619478   3.982568   4.582493   4.647295
    17  H    5.983001   2.490209   3.608552   4.140320   4.267622
    18  H    4.529693   2.084521   2.538536   2.327710   3.662452
    19  H    3.723606   2.704100   3.615408   3.869507   4.436781
    20  H    3.696552   2.606736   2.834441   2.613952   3.804276
                   16         17         18         19         20
    16  H    0.000000
    17  H    1.755254   0.000000
    18  H    3.038237   2.486204   0.000000
    19  H    2.518028   3.714192   3.048194   0.000000
    20  H    3.728861   4.278794   2.558485   1.754195   0.000000
 Stoichiometry    C3H5N3O9
 Framework group  C1[X(C3H5N3O9)]
 Deg. of freedom    54
 Full point group                 C1      NOp   1
 Largest Abelian subgroup         C1      NOp   1
 Largest concise Abelian subgroup C1      NOp   1
                         Standard orientation:                         
 ---------------------------------------------------------------------
 Center     Atomic      Atomic             Coordinates (Angstroms)
 Number     Number       Type             X           Y           Z
 ---------------------------------------------------------------------
      1          8           0       -2.577663   -2.601869    0.693554
      2          7           0       -2.685934   -1.690444   -0.063642
      3          8           0       -3.642358   -1.304456   -0.639309
      4          8           0       -1.569528   -0.950732   -0.338055
      5          6           0       -0.407295   -1.407536    0.328112
      6          6           0        0.739048   -0.489335   -0.108425
      7          6           0        0.635036    0.943478    0.420675
      8          8           0       -0.423879    1.568186   -0.283842
      9          7           0       -0.639837    2.866936    0.081997
     10          8           0        0.038562    3.321049    0.947891
     11          8           0       -1.509490    3.378022   -0.532995
     12          8           0        1.887717   -1.103031    0.452690
     13          7           0        3.070634   -0.880660   -0.206908
     14          8           0        3.066895   -0.147014   -1.142780
     15          8           0        3.971324   -1.468589    0.278846
     16          1           0       -0.536872   -1.382243    1.404043
     17          1           0       -0.180332   -2.427299    0.039618
     18          1           0        0.764218   -0.484117   -1.190454
     19          1           0        0.443758    0.935471    1.487897
     20          1           0        1.561802    1.475185    0.248588
 ---------------------------------------------------------------------
 Rotational constants (GHZ):           0.5687248           0.4267099           0.2619039
 Standard basis: 6-31G(d) (6D, 7F)
 There are   235 symmetry adapted cartesian basis functions of A   symmetry.
 There are   235 symmetry adapted basis functions of A   symmetry.
   235 basis functions,   440 primitive gaussians,   235 cartesian basis functions
    58 alpha electrons       58 beta electrons
       nuclear repulsion energy      1091.6818483758 Hartrees.
 NAtoms=   20 NActive=   20 NUniq=   20 SFac= 1.00D+00 NAtFMM=   60 NAOKFM=F Big=F
 Integral buffers will be    131072 words long.
 Raffenetti 1 integral format.
 Two-electron integral symmetry is turned on.
 One-electron integrals computed using PRISM.
 NBasis=   235 RedAO= T EigKep=  2.30D-03  NBF=   235
 NBsUse=   235 1.00D-06 EigRej= -1.00D+00 NBFU=   235
 Initial guess from the checkpoint file:  "C:\g16w\Scratch\Gau-14448.chk"
 B after Tr=     0.000000    0.000000    0.000000
         Rot=    0.999888    0.001031    0.001752   -0.014846 Ang=   1.72 deg.
 ExpMin= 1.61D-01 ExpMax= 5.48D+03 ExpMxC= 8.25D+02 IAcc=3 IRadAn=         5 AccDes= 0.00D+00
 Harris functional with IExCor=  205 and IRadAn=       5 diagonalized for initial guess.
 HarFok:  IExCor=  205 AccDes= 0.00D+00 IRadAn=         5 IDoV= 1 UseB2=F ITyADJ=14
 ICtDFT=  3500011 ScaDFX=  1.000000  1.000000  1.000000  1.000000
 FoFCou: FMM=F IPFlag=           0 FMFlag=      100000 FMFlg1=           0
         NFxFlg=           0 DoJE=T BraDBF=F KetDBF=T FulRan=T
         wScrn=  0.000000 ICntrl=       500 IOpCl=  0 I1Cent=   200000004 NGrid=           0
         NMat0=    1 NMatS0=      1 NMatT0=    0 NMatD0=    1 NMtDS0=    0 NMtDT0=    0
 Petite list used in FoFCou.
 Requested convergence on RMS density matrix=1.00D-08 within 128 cycles.
 Requested convergence on MAX density matrix=1.00D-06.
 Requested convergence on             energy=1.00D-06.
 No special actions if energy rises.
 Integral accuracy reduced to 1.0D-05 until final iterations.
 Initial convergence to 1.0D-05 achieved.  Increase integral accuracy.
 SCF Done:  E(RHF) =  -953.092826806     A.U. after   15 cycles
            NFock= 15  Conv=0.55D-08     -V/T= 2.0027
 Calling FoFJK, ICntrl=      2127 FMM=F ISym2X=0 I1Cent= 0 IOpClX= 0 NMat=1 NMatS=1 NMatT=0.
 ***** Axes restored to original set *****
 -------------------------------------------------------------------
 Center     Atomic                   Forces (Hartrees/Bohr)
 Number     Number              X              Y              Z
 -------------------------------------------------------------------
      1        8          -0.008900025   -0.011036063   -0.004989617
      2        7          -0.007310411   -0.009952841   -0.003751348
      3        8          -0.001996208    0.018784411    0.001852671
      4        8           0.021303293    0.001106752    0.007532479
      5        6          -0.002454485    0.015653416    0.001399121
      6        6           0.007488403   -0.023243642    0.000994585
      7        6          -0.002351725    0.013145168    0.001811625
      8        8          -0.016924585   -0.005732772    0.013678243
      9        7           0.008727801   -0.006402320   -0.006519324
     10        8           0.009411097   -0.007571948   -0.008907628
     11        8          -0.003416830    0.018610995    0.002725229
     12        8          -0.014512562    0.002362821   -0.016629153
     13        7           0.002949056    0.009796330    0.005650115
     14        8           0.009617057    0.009571670    0.008827013
     15        8           0.000298782   -0.019408030   -0.000615285
     16        1           0.000103937   -0.003393411   -0.002041014
     17        1          -0.002120295   -0.002963491    0.000959022
     18        1          -0.003370839    0.006023881    0.000767553
     19        1           0.000495771   -0.003277354   -0.002071257
     20        1           0.002962769   -0.002073573   -0.000673030
 -------------------------------------------------------------------
 Cartesian Forces:  Max     0.023243642 RMS     0.009063378

 GradGradGradGradGradGradGradGradGradGradGradGradGradGradGradGradGradGrad
 Berny optimization.
 Using GEDIIS/GDIIS optimizer.
 FormGI is forming the generalized inverse of G from B-inverse, IUseBI=4.
 Internal  Forces:  Max     0.019355622 RMS     0.006274735
 Search for a local minimum.
 Step number   2 out of a maximum of   95
 All quantities printed in internal units (Hartrees-Bohrs-Radians)
 Mixed Optimization -- RFO/linear search
 Update second derivatives using D2CorX and points    1    2
 DE= -4.59D-02 DEPred=-4.49D-02 R= 1.02D+00
 TightC=F SS=  1.41D+00  RLast= 3.19D-01 DXNew= 5.0454D-01 9.5666D-01
 Trust test= 1.02D+00 RLast= 3.19D-01 DXMaxT set to 5.05D-01
 ITU=  1  0
 Use linear search instead of GDIIS.
     Eigenvalues ---    0.00235   0.00237   0.01070   0.01071   0.01071
     Eigenvalues ---    0.01272   0.01383   0.01393   0.02879   0.02886
     Eigenvalues ---    0.02901   0.04120   0.05016   0.05342   0.05355
     Eigenvalues ---    0.05794   0.05836   0.07495   0.10980   0.11021
     Eigenvalues ---    0.13526   0.13545   0.16551   0.19295   0.21958
     Eigenvalues ---    0.22343   0.24437   0.24999   0.25000   0.25000
     Eigenvalues ---    0.25000   0.25000   0.25000   0.25000   0.25417
     Eigenvalues ---    0.28511   0.28537   0.33841   0.33865   0.33878
     Eigenvalues ---    0.33957   0.34108   0.40359   0.41450   0.41996
     Eigenvalues ---    0.42489   0.42927   0.42945   0.90550   0.90784
     Eigenvalues ---    0.91303   0.91940   0.92091   0.93334
 RFO step:  Lambda=-2.99147950D-03 EMin= 2.35304301D-03
 Quartic linear search produced a step of  0.24133.
 Iteration  1 RMS(Cart)=  0.04746339 RMS(Int)=  0.00071933
 Iteration  2 RMS(Cart)=  0.00172502 RMS(Int)=  0.00021946
 Iteration  3 RMS(Cart)=  0.00000127 RMS(Int)=  0.00021946
 Iteration  4 RMS(Cart)=  0.00000000 RMS(Int)=  0.00021946
 Variable       Old X    -DE/DX   Delta X   Delta X   Delta X     New X
                                 (Linear)    (Quad)   (Total)
    R1        2.24851  -0.01502  -0.01887   0.00289  -0.01598   2.23253
    R2        2.23206  -0.01884  -0.02131   0.00102  -0.02030   2.21176
    R3        2.58336  -0.01856  -0.02276  -0.01930  -0.04206   2.54129
    R4        2.67464   0.00175  -0.00329   0.01007   0.00678   2.68141
    R5        2.89551  -0.00170  -0.00359  -0.00108  -0.00467   2.89085
    R6        2.04846  -0.00308  -0.00650  -0.00064  -0.00714   2.04132
    R7        2.04812  -0.00344  -0.00665  -0.00172  -0.00836   2.03975
    R8        2.89302  -0.00184  -0.00415  -0.00071  -0.00486   2.88817
    R9        2.67976   0.00266  -0.00622   0.01750   0.01128   2.69103
   R10        2.04532  -0.00317  -0.00745   0.00054  -0.00690   2.03841
   R11        2.67775   0.00083  -0.00289   0.00680   0.00391   2.68166
   R12        2.04895  -0.00292  -0.00637  -0.00029  -0.00665   2.04230
   R13        2.04512  -0.00309  -0.00662  -0.00045  -0.00707   2.03805
   R14        2.58225  -0.01916  -0.02299  -0.02066  -0.04365   2.53859
   R15        2.24887  -0.01500  -0.01883   0.00287  -0.01596   2.23290
   R16        2.23253  -0.01901  -0.02125   0.00071  -0.02054   2.21199
   R17        2.59369  -0.01795  -0.02026  -0.02127  -0.04153   2.55216
   R18        2.24719  -0.01605  -0.01874   0.00140  -0.01734   2.22985
   R19        2.23024  -0.01936  -0.02155   0.00066  -0.02089   2.20936
    A1        2.25771  -0.00129  -0.00364   0.00037  -0.00327   2.25444
    A2        2.05772  -0.00249   0.00375  -0.01910  -0.01534   2.04238
    A3        1.96775   0.00378  -0.00012   0.01873   0.01862   1.98637
    A4        1.98393   0.00990   0.00435   0.04055   0.04490   2.02883
    A5        1.86173  -0.00233  -0.01458   0.01287  -0.00169   1.86004
    A6        1.94065  -0.00042   0.00151  -0.00894  -0.00734   1.93331
    A7        1.92874   0.00009   0.00214  -0.00956  -0.00744   1.92130
    A8        1.93717   0.00192   0.00696   0.00216   0.00906   1.94623
    A9        1.90851   0.00018   0.00421  -0.00860  -0.00450   1.90401
   A10        1.88724   0.00056   0.00001   0.01160   0.01146   1.89870
   A11        1.99496   0.00449   0.01188   0.01004   0.02133   2.01629
   A12        1.80693  -0.00351  -0.01135  -0.00485  -0.01577   1.79117
   A13        1.88085   0.00191   0.00587   0.02429   0.02942   1.91027
   A14        1.90003  -0.00131  -0.00441  -0.00917  -0.01330   1.88673
   A15        1.92046  -0.00080  -0.00026   0.00597   0.00437   1.92483
   A16        1.95933  -0.00085  -0.00172  -0.02794  -0.02948   1.92985
   A17        1.86665  -0.00243  -0.01179   0.00607  -0.00577   1.86088
   A18        1.92330   0.00206   0.00481   0.01033   0.01510   1.93841
   A19        1.92483  -0.00024   0.00284  -0.01078  -0.00811   1.91673
   A20        1.93992  -0.00028   0.00151  -0.00666  -0.00509   1.93484
   A21        1.92227   0.00006   0.00160  -0.01259  -0.01111   1.91117
   A22        1.88727   0.00082   0.00122   0.01314   0.01427   1.90153
   A23        1.98669   0.00906   0.00494   0.03536   0.04031   2.02700
   A24        2.05713  -0.00223   0.00359  -0.01753  -0.01395   2.04318
   A25        1.96941   0.00338   0.00028   0.01607   0.01634   1.98575
   A26        2.25663  -0.00114  -0.00386   0.00149  -0.00238   2.25425
   A27        2.02400   0.00765   0.00890   0.02118   0.03008   2.05409
   A28        2.06628  -0.00403   0.00558  -0.02996  -0.02442   2.04186
   A29        1.95977   0.00372  -0.00157   0.02118   0.01957   1.97934
   A30        2.25707   0.00032  -0.00399   0.00893   0.00491   2.26198
    D1        3.13985   0.00018   0.00067   0.00188   0.00254  -3.14079
    D2        0.01547  -0.00009  -0.00028  -0.00170  -0.00198   0.01349
    D3       -3.12765   0.00007   0.00028  -0.00004   0.00025  -3.12741
    D4        3.12491  -0.00069  -0.00119  -0.00832  -0.00952   3.11540
    D5       -1.04396  -0.00007  -0.00111  -0.00274  -0.00381  -1.04777
    D6        1.05201   0.00042   0.00128  -0.00038   0.00087   1.05288
    D7        1.20384   0.00198   0.00648   0.04967   0.05650   1.26034
    D8       -3.01524   0.00046   0.00037   0.04062   0.04097  -2.97427
    D9       -0.93666  -0.00141  -0.00452   0.01725   0.01231  -0.92436
   D10       -0.91269   0.00285   0.00960   0.05119   0.06125  -0.85144
   D11        1.15141   0.00132   0.00350   0.04214   0.04572   1.19713
   D12       -3.05320  -0.00054  -0.00139   0.01878   0.01705  -3.03614
   D13       -2.99329   0.00085   0.00297   0.04098   0.04430  -2.94899
   D14       -0.92919  -0.00067  -0.00314   0.03193   0.02877  -0.90042
   D15        1.14939  -0.00254  -0.00803   0.00857   0.00010   1.14950
   D16       -1.25200  -0.00315  -0.00921  -0.07391  -0.08313  -1.33514
   D17        0.85866  -0.00380  -0.01176  -0.07231  -0.08417   0.77449
   D18        2.94097  -0.00163  -0.00563  -0.05631  -0.06200   2.87897
   D19        3.02081  -0.00056   0.00057  -0.06774  -0.06704   2.95377
   D20       -1.15171  -0.00121  -0.00197  -0.06614  -0.06808  -1.21978
   D21        0.93060   0.00096   0.00416  -0.05015  -0.04591   0.88469
   D22        0.86681   0.00188   0.00591  -0.03071  -0.02478   0.84204
   D23        2.97748   0.00124   0.00337  -0.02911  -0.02581   2.95167
   D24       -1.22340   0.00341   0.00950  -0.01312  -0.00365  -1.22704
   D25        2.66420  -0.00124  -0.00256  -0.01177  -0.01434   2.64985
   D26       -1.49013   0.00141   0.00267  -0.00729  -0.00458  -1.49471
   D27        0.64049  -0.00108  -0.00201  -0.02455  -0.02659   0.61390
   D28       -3.14076   0.00108   0.00121   0.02051   0.02168  -3.11908
   D29        1.04235   0.00026   0.00190   0.00797   0.00984   1.05219
   D30       -1.04891  -0.00063  -0.00161   0.00408   0.00254  -1.04637
   D31       -0.02857   0.00026   0.00077   0.00763   0.00843  -0.02015
   D32        3.11873  -0.00011  -0.00059   0.00325   0.00264   3.12137
   D33       -3.13479  -0.00046  -0.00166  -0.00525  -0.00689   3.14151
   D34        0.06742  -0.00066  -0.00087  -0.03638  -0.03728   0.03014
   D35       -3.08569  -0.00007   0.00047  -0.02323  -0.02274  -3.10843
   D36        3.12782   0.00073   0.00165   0.01575   0.01738  -3.13799
         Item               Value     Threshold  Converged?
 Maximum Force            0.019356     0.000450     NO 
 RMS     Force            0.006275     0.000300     NO 
 Maximum Displacement     0.150181     0.001800     NO 
 RMS     Displacement     0.048088     0.001200     NO 
 Predicted change in Energy=-4.334217D-03
 GradGradGradGradGradGradGradGradGradGradGradGradGradGradGradGradGradGrad

                          Input orientation:                          
 ---------------------------------------------------------------------
 Center     Atomic      Atomic             Coordinates (Angstroms)
 Number     Number       Type             X           Y           Z
 ---------------------------------------------------------------------
      1          8           0        3.664698   -0.306733    0.827598
      2          7           0        2.990106   -1.203539    0.458304
      3          8           0        3.254475   -2.340366    0.371140
      4          8           0        1.735210   -0.907130    0.076399
      5          6           0        1.365312    0.461063    0.144371
      6          6           0       -0.072804    0.550304   -0.369492
      7          6           0       -1.142808   -0.009517    0.567283
      8          8           0       -1.074482   -1.423088    0.462796
      9          7           0       -1.962279   -2.114361    1.196681
     10          8           0       -2.701446   -1.489920    1.874831
     11          8           0       -1.883419   -3.274567    1.063047
     12          8           0       -0.275903    1.955136   -0.483805
     13          7           0       -1.158269    2.388380   -1.409929
     14          8           0       -1.722506    1.564560   -2.038676
     15          8           0       -1.240625    3.553372   -1.463800
     16          1           0        1.448063    0.830456    1.156093
     17          1           0        2.005628    1.050287   -0.494294
     18          1           0       -0.138505    0.077866   -1.336984
     19          1           0       -0.972964    0.309707    1.585734
     20          1           0       -2.117482    0.328088    0.252362
 ---------------------------------------------------------------------
                    Distance matrix (angstroms):
                    1          2          3          4          5
     1  O    0.000000
     2  N    1.181404   0.000000
     3  O    2.124218   1.170412   0.000000
     4  O    2.155853   1.344795   2.109314   0.000000
     5  C    2.518628   2.347213   3.386498   1.418942   0.000000
     6  C    4.017021   3.625276   4.469373   2.364708   1.529770
     7  C    4.823714   4.303318   4.980706   3.054450   2.586691
     8  O    4.882536   4.070515   4.426022   2.882687   3.099034
     9  N    5.921707   5.089294   5.286504   4.047699   4.337399
    10  O    6.559300   5.872164   6.201398   4.822646   4.831081
    11  O    6.296434   5.329738   5.267772   4.435392   5.035191
    12  O    4.729077   4.640217   5.625464   3.542735   2.306610
    13  N    5.960803   5.796654   6.708618   4.630526   3.535373
    14  O    6.382729   6.008826   6.769490   4.747482   3.939291
    15  O    6.649294   6.649945   7.636038   5.578878   4.351953
    16  H    2.512883   2.646118   3.732746   2.065768   1.080222
    17  H    2.518216   2.637494   3.715525   2.056769   1.079390
    18  H    4.392913   3.827958   4.503093   2.545324   2.145395
    19  H    4.739481   4.389412   5.135112   3.330614   2.750995
    20  H    5.845298   5.336267   5.999390   4.049687   3.487005
                    6          7          8          9         10
     6  C    0.000000
     7  C    1.528351   0.000000
     8  O    2.364389   1.419073   0.000000
     9  N    3.622631   2.344790   1.343365   0.000000
    10  O    4.013634   2.516073   2.155300   1.181601   0.000000
    11  O    4.467676   3.384499   2.107761   1.170536   2.124412
    12  O    1.424034   2.390852   3.598080   4.714733   4.828543
    13  N    2.374714   3.107977   4.247517   5.264553   5.311520
    14  O    2.556640   3.099160   3.950106   4.905046   5.060010
    15  O    3.402901   4.102322   5.338963   6.302551   6.222158
    16  H    2.172310   2.786551   3.452876   4.506000   4.808238
    17  H    2.141364   3.487519   4.064565   5.349644   5.849953
    18  H    1.078682   2.154645   2.523515   3.814639   4.397997
    19  H    2.165891   1.080737   2.067335   2.646925   2.511948
    20  H    2.148672   1.078491   2.049085   2.623239   2.505708
                   11         12         13         14         15
    11  O    0.000000
    12  O    5.685653   0.000000
    13  N    6.221769   1.350546   0.000000
    14  O    5.750106   2.159359   1.179985   0.000000
    15  O    7.308823   2.108420   1.169141   2.125574   0.000000
    16  H    5.287593   2.631774   3.975495   4.560478   4.637581
    17  H    6.021160   2.454435   3.555155   4.067994   4.212308
    18  H    4.477017   2.066624   2.526601   2.282912   3.648272
    19  H    3.734856   2.734286   3.650919   3.908045   4.460119
    20  H    3.700151   2.565276   2.815688   2.633196   3.757199
                   16         17         18         19         20
    16  H    0.000000
    17  H    1.755843   0.000000
    18  H    3.049430   2.500607   0.000000
    19  H    2.513393   3.707693   3.048336   0.000000
    20  H    3.712441   4.251953   2.550487   1.757311   0.000000
 Stoichiometry    C3H5N3O9
 Framework group  C1[X(C3H5N3O9)]
 Deg. of freedom    54
 Full point group                 C1      NOp   1
 Largest Abelian subgroup         C1      NOp   1
 Largest concise Abelian subgroup C1      NOp   1
                         Standard orientation:                         
 ---------------------------------------------------------------------
 Center     Atomic      Atomic             Coordinates (Angstroms)
 Number     Number       Type             X           Y           Z
 ---------------------------------------------------------------------
      1          8           0       -2.742231   -2.474993    0.677251
      2          7           0       -2.792391   -1.562205   -0.071092
      3          8           0       -3.712339   -1.134347   -0.654612
      4          8           0       -1.644984   -0.901571   -0.306666
      5          6           0       -0.491909   -1.388794    0.361486
      6          6           0        0.677088   -0.511008   -0.089218
      7          6           0        0.687333    0.910839    0.471233
      8          8           0       -0.287682    1.641088   -0.256676
      9          7           0       -0.419723    2.938033    0.067558
     10          8           0        0.267199    3.347380    0.937474
     11          8           0       -1.219179    3.505348   -0.572112
     12          8           0        1.805897   -1.201926    0.436418
     13          7           0        2.981560   -1.070321   -0.215096
     14          8           0        2.994103   -0.363328   -1.159750
     15          8           0        3.848001   -1.695747    0.259258
     16          1           0       -0.625403   -1.351247    1.432771
     17          1           0       -0.298987   -2.410247    0.070803
     18          1           0        0.714632   -0.488416   -1.167009
     19          1           0        0.460491    0.913467    1.527891
     20          1           0        1.657794    1.356435    0.320255
 ---------------------------------------------------------------------
 Rotational constants (GHZ):           0.5540466           0.4321212           0.2609952
 Standard basis: 6-31G(d) (6D, 7F)
 There are   235 symmetry adapted cartesian basis functions of A   symmetry.
 There are   235 symmetry adapted basis functions of A   symmetry.
   235 basis functions,   440 primitive gaussians,   235 cartesian basis functions
    58 alpha electrons       58 beta electrons
       nuclear repulsion energy      1093.3828145421 Hartrees.
 NAtoms=   20 NActive=   20 NUniq=   20 SFac= 1.00D+00 NAtFMM=   60 NAOKFM=F Big=F
 Integral buffers will be    131072 words long.
 Raffenetti 1 integral format.
 Two-electron integral symmetry is turned on.
 One-electron integrals computed using PRISM.
 NBasis=   235 RedAO= T EigKep=  2.18D-03  NBF=   235
 NBsUse=   235 1.00D-06 EigRej= -1.00D+00 NBFU=   235
 Initial guess from the checkpoint file:  "C:\g16w\Scratch\Gau-14448.chk"
 B after Tr=     0.000000    0.000000    0.000000
         Rot=    0.999494    0.001141   -0.000325    0.031799 Ang=   3.65 deg.
 ExpMin= 1.61D-01 ExpMax= 5.48D+03 ExpMxC= 8.25D+02 IAcc=3 IRadAn=         5 AccDes= 0.00D+00
 Harris functional with IExCor=  205 and IRadAn=       5 diagonalized for initial guess.
 HarFok:  IExCor=  205 AccDes= 0.00D+00 IRadAn=         5 IDoV= 1 UseB2=F ITyADJ=14
 ICtDFT=  3500011 ScaDFX=  1.000000  1.000000  1.000000  1.000000
 FoFCou: FMM=F IPFlag=           0 FMFlag=      100000 FMFlg1=           0
         NFxFlg=           0 DoJE=T BraDBF=F KetDBF=T FulRan=T
         wScrn=  0.000000 ICntrl=       500 IOpCl=  0 I1Cent=   200000004 NGrid=           0
         NMat0=    1 NMatS0=      1 NMatT0=    0 NMatD0=    1 NMtDS0=    0 NMtDT0=    0
 Petite list used in FoFCou.
 Requested convergence on RMS density matrix=1.00D-08 within 128 cycles.
 Requested convergence on MAX density matrix=1.00D-06.
 Requested convergence on             energy=1.00D-06.
 No special actions if energy rises.
 Integral accuracy reduced to 1.0D-05 until final iterations.
 Initial convergence to 1.0D-05 achieved.  Increase integral accuracy.
 SCF Done:  E(RHF) =  -953.096225771     A.U. after   14 cycles
            NFock= 14  Conv=0.55D-08     -V/T= 2.0022
 Calling FoFJK, ICntrl=      2127 FMM=F ISym2X=0 I1Cent= 0 IOpClX= 0 NMat=1 NMatS=1 NMatT=0.
 ***** Axes restored to original set *****
 -------------------------------------------------------------------
 Center     Atomic                   Forces (Hartrees/Bohr)
 Number     Number              X              Y              Z
 -------------------------------------------------------------------
      1        8           0.005022531    0.004317682    0.002430644
      2        7          -0.008592300    0.004591142   -0.002288200
      3        8           0.000108466   -0.003999008   -0.000539953
      4        8          -0.001066262   -0.005168103   -0.000395551
      5        6           0.001770395    0.007440948    0.000661187
      6        6           0.003049096   -0.012826995   -0.001456815
      7        6          -0.003451586    0.005478645    0.001684945
      8        8           0.002062615   -0.003956488   -0.000772590
      9        7           0.005447012    0.006496286   -0.004794851
     10        8          -0.004915852    0.002276968    0.004543180
     11        8           0.000611287   -0.004186245   -0.000635575
     12        8          -0.000768539    0.006012401    0.001020085
     13        7           0.007444423   -0.005520394    0.005301468
     14        8          -0.006167102   -0.001933887   -0.005545631
     15        8          -0.000639550    0.003637731    0.000244911
     16        1           0.000156573   -0.001372661   -0.000117798
     17        1           0.000116731   -0.000743227    0.000195982
     18        1          -0.000716734    0.001262738    0.000759926
     19        1           0.000204072   -0.001512548   -0.000271486
     20        1           0.000324723   -0.000294985   -0.000023880
 -------------------------------------------------------------------
 Cartesian Forces:  Max     0.012826995 RMS     0.003880191

 GradGradGradGradGradGradGradGradGradGradGradGradGradGradGradGradGradGrad
 Berny optimization.
 Using GEDIIS/GDIIS optimizer.
 FormGI is forming the generalized inverse of G from B-inverse, IUseBI=4.
 Internal  Forces:  Max     0.007254053 RMS     0.002331444
 Search for a local minimum.
 Step number   3 out of a maximum of   95
 All quantities printed in internal units (Hartrees-Bohrs-Radians)
 Mixed Optimization -- RFO/linear search
 Update second derivatives using D2CorX and points    1    2    3
 DE= -3.40D-03 DEPred=-4.33D-03 R= 7.84D-01
 TightC=F SS=  1.41D+00  RLast= 2.58D-01 DXNew= 8.4853D-01 7.7373D-01
 Trust test= 7.84D-01 RLast= 2.58D-01 DXMaxT set to 7.74D-01
 ITU=  1  1  0
 Use linear search instead of GDIIS.
     Eigenvalues ---    0.00236   0.00245   0.01070   0.01071   0.01074
     Eigenvalues ---    0.01275   0.01384   0.01394   0.02879   0.02885
     Eigenvalues ---    0.02909   0.03898   0.05105   0.05360   0.05402
     Eigenvalues ---    0.05711   0.05799   0.07786   0.11005   0.11033
     Eigenvalues ---    0.13460   0.13519   0.16664   0.19141   0.21673
     Eigenvalues ---    0.21997   0.24409   0.25000   0.25000   0.25000
     Eigenvalues ---    0.25000   0.25000   0.25000   0.25046   0.28161
     Eigenvalues ---    0.28515   0.29690   0.33680   0.33865   0.33870
     Eigenvalues ---    0.33879   0.34051   0.37386   0.41424   0.41997
     Eigenvalues ---    0.42303   0.42929   0.43045   0.90549   0.90655
     Eigenvalues ---    0.91008   0.91944   0.92084   1.11307
 RFO step:  Lambda=-1.35072747D-03 EMin= 2.35654200D-03
 Quartic linear search produced a step of -0.07780.
 Iteration  1 RMS(Cart)=  0.02651219 RMS(Int)=  0.00028733
 Iteration  2 RMS(Cart)=  0.00042641 RMS(Int)=  0.00006779
 Iteration  3 RMS(Cart)=  0.00000010 RMS(Int)=  0.00006779
 Variable       Old X    -DE/DX   Delta X   Delta X   Delta X     New X
                                 (Linear)    (Quad)   (Total)
    R1        2.23253   0.00691   0.00124   0.00445   0.00569   2.23822
    R2        2.21176   0.00395   0.00158   0.00059   0.00217   2.21393
[...]
 ,-0.00140365,-0.02709288,-0.00566163,0.02365267,-0.22206392,-0.0763377
 8,0.10594980,0.56705259,0.00063713,-0.00027497,0.00029142,-0.00157464,
 0.00161521,-0.00094831,0.00048004,-0.00095464,0.00038667,0.00161195,-0
 .00090436,0.00109540,-0.00068416,0.00036824,-0.00102224,-0.00078489,0.
 02641325,0.01047731,0.02458734,-0.04445509,-0.12100104,-0.17218576,0.0
 3779746,0.31087297,0.00224497,0.00057169,0.00067117,-0.00579814,0.0012
 2882,-0.00171138,0.00146767,-0.00078710,0.00042259,0.00304378,-0.00034
 766,0.00016574,-0.00093931,-0.00068383,0.00024612,-0.00205625,-0.00009
 058,0.00270471,-0.00876636,-0.03706452,-0.00968296,-0.14787065,-0.0320
 1885,0.06604523,0.55300044,0.00161524,-0.00214436,0.00059132,-0.006305
 45,0.00881473,-0.00248730,0.00171509,-0.00482550,0.00099302,0.00552305
 ,-0.00327443,0.00097889,-0.00264194,0.00218483,-0.00090255,-0.00063251
 ,-0.01119949,-0.00164766,-0.04005126,-0.04049633,0.03636559,-0.0143462
 6,-0.18681258,-0.01920535,0.00519888,1.20317789,-0.00183765,-0.0005585
 9,-0.00069462,0.00397174,-0.00111879,0.00214824,-0.00099631,0.00060779
 ,-0.00072969,-0.00268954,0.00061937,-0.00116175,0.00079022,0.00112354,
 0.00030060,0.00244758,-0.00332971,-0.00563743,-0.00997451,0.03241232,0
 .01965351,0.07108117,0.00288830,-0.17591014,-0.26985015,0.31468804,0.7
 9528092,-0.00080901,-0.00029679,-0.00023412,0.00182725,-0.00023810,0.0
 0060966,-0.00044305,0.00013215,-0.00016409,-0.00098411,0.00015550,-0.0
 0025094,0.00049471,0.00039772,-0.00016371,0.00124235,0.00134882,0.0006
 4553,-0.00373638,0.01165362,0.00385183,-0.02540046,-0.00676814,0.07211
 463,-0.25644718,0.08687642,0.20119237,0.24622878,-0.00010930,0.0007648
 4,-0.00006457,0.00105979,-0.00227213,0.00038956,-0.00034760,0.00130600
 ,-0.00019896,-0.00103273,0.00087497,-0.00016492,0.00063708,-0.00128596
 ,0.00072676,-0.00029327,0.00401757,0.00110203,-0.00343714,-0.00617127,
 0.00222085,-0.01190516,0.03535797,0.01589165,0.10511891,-0.27328652,-0
 .18851499,-0.12871628,0.32700335,0.00099812,0.00051511,0.00037207,-0.0
 0187646,-0.00000127,-0.00102721,0.00044317,0.00003705,0.00032760,0.001
 11038,-0.00008795,0.00060550,-0.00029024,-0.00076425,-0.00026639,-0.00
 055595,-0.00039075,0.00147519,-0.00124398,-0.01598663,-0.00819796,0.07
 038908,0.00925442,-0.05125859,0.20786957,-0.16522447,-0.44552292,-0.29
 962034,0.26692288,0.52213368,-0.00056259,-0.00018484,-0.00015705,0.001
 35511,-0.00009853,0.00037959,-0.00037159,0.00010123,-0.00008811,-0.000
 66800,0.00011207,-0.00010324,0.00022892,-0.00000400,0.00018966,0.00117
 859,-0.00082894,-0.00184096,0.00056536,0.00543356,0.00914419,0.0030906
 7,-0.07456891,0.00195202,-0.14313089,-0.03960783,0.01069131,0.03946269
 ,0.04194179,0.02029205,0.10063506,-0.00055152,0.00135314,-0.00023398,0
 .00280782,-0.00471307,0.00116560,-0.00083254,0.00266852,-0.00051352,-0
 .00262317,0.00190066,-0.00055015,0.00139963,-0.00184377,0.00098232,0.0
 0220843,0.00032147,-0.00364718,-0.00468730,0.00907778,0.00694359,-0.04
 930047,-0.09846540,0.01558119,-0.05995846,-0.70021179,-0.13963704,0.04
 278506,-0.08646837,-0.10235346,0.07162682,0.88116761,0.00025658,0.0001
 7575,0.00010813,-0.00047243,-0.00014735,-0.00034185,0.00010643,0.00007
 367,0.00014050,0.00023728,0.00001803,0.00022791,-0.00003664,-0.0002502
 5,-0.00005425,-0.00042128,0.00102404,0.00118294,0.00547707,-0.00531378
 ,-0.00229797,0.01142712,0.04732202,0.02977595,0.00321114,-0.16470859,-
 0.18832467,0.02063933,-0.10128047,-0.02052312,-0.04040581,0.22011271,0
 .18015471,-0.00231268,-0.00064144,-0.00062149,0.00852336,-0.00016666,0
 .00224181,-0.00319752,0.00336676,-0.00120487,-0.01637556,0.00507499,-0
 .00613324,-0.00579421,0.04645251,-0.00296430,-0.08654324,0.00428718,-0
 .02047794,0.00231373,-0.01957479,0.00061836,-0.00084434,-0.00289570,0.
 00307406,-0.00034214,-0.00175245,-0.00023324,0.00047853,0.00070492,-0.
 00008508,-0.00001182,0.00012518,0.00011005,0.30919130,0.00221832,0.000
 78683,0.00048087,-0.00652292,0.00030663,-0.00152084,0.00184452,-0.0014
 0062,0.00061081,0.00775517,-0.00095911,0.00233243,0.00547786,-0.020303
 77,0.00192260,-0.02403113,-0.22644201,-0.02636897,0.00951998,-0.033312
 87,-0.00029301,-0.00885494,-0.00623325,0.00948775,0.00622143,0.0034501
 0,-0.00501256,-0.00215426,-0.00052109,0.00207854,-0.00200239,-0.003708
 74,0.00075639,-0.05644283,0.54084418,-0.00150898,-0.00038592,-0.000377
 30,0.00479603,0.00019991,0.00160777,-0.00189432,0.00184936,-0.00073697
 ,-0.00966351,0.00256124,-0.00197143,-0.00133162,0.02189076,-0.00072252
 ,-0.02081851,-0.00336280,-0.09298248,-0.00975395,0.02612314,0.00527045
 ,0.00673593,0.00663310,-0.00687938,-0.00402164,-0.00201631,0.00367232,
 0.00095617,0.00040780,-0.00083162,0.00157150,0.00308565,-0.00046920,0.
 19233384,-0.04016829,0.24633277,0.00162941,-0.00079959,0.00054533,-0.0
 0534365,0.00355498,-0.00188561,0.00184638,-0.00289004,0.00080800,0.005
 74126,-0.00456906,0.00203533,-0.00310201,0.00218129,-0.00347748,-0.017
 46076,0.04714297,0.00280859,0.01089806,-0.00424214,-0.00298150,-0.0059
 4775,-0.00444988,0.00386078,0.00434507,0.00243247,-0.00237925,-0.00178
 522,-0.00064954,0.00105651,-0.00148609,-0.00263438,0.00028096,-0.15647
 609,-0.00041100,-0.06467057,0.62602969,-0.00224733,0.00003969,-0.00059
 986,0.00550999,-0.00205850,0.00173412,-0.00141178,0.00120635,-0.000531
 61,-0.00168388,0.00190349,-0.00056992,0.00189806,-0.01075781,-0.001176
 13,0.04457982,-0.00819901,0.04030078,0.00109824,-0.00603841,0.00167191
 ,0.00212083,0.00589051,-0.00376581,-0.00500533,-0.00664948,0.00506977,
 0.00172186,0.00129874,-0.00211086,0.00133661,0.00326905,-0.00072070,-0
 .01390882,-0.18684869,-0.01333146,0.11900998,1.35769469,0.00188417,-0.
 00039081,0.00044241,-0.00603871,0.00230963,-0.00140399,0.00217591,-0.0
 0278970,0.00075889,0.00782812,-0.00412362,0.00271184,-0.00402445,-0.00
 415976,-0.00319247,0.00066925,0.04200025,-0.00144068,0.00418986,0.0021
 4379,-0.00403349,-0.00389189,-0.00565859,0.00269812,0.00374294,0.00397
 401,-0.00158234,-0.00121056,-0.00122906,0.00059448,-0.00136179,-0.0031
 2132,-0.00003896,-0.06940227,-0.00099984,-0.14378100,0.24585223,0.0938
 8161,0.54695328,-0.00046221,0.00048359,-0.00013723,0.00184809,-0.00154
 829,0.00065547,-0.00067562,0.00123004,-0.00032095,-0.00201906,0.001768
 56,-0.00058727,0.00180306,-0.00162803,-0.00065208,-0.00292677,-0.01390
 217,-0.00009414,-0.00383508,0.00075351,0.00158983,0.00188839,0.0006690
 0,-0.00046569,-0.00113649,0.00010488,0.00004163,0.00058255,0.00002999,
 -0.00014416,0.00039452,0.00044661,0.00000938,-0.04899819,-0.01882335,-
 0.06910973,-0.30976917,-0.18140540,-0.15865430,0.32868166,0.00063311,0
 .00011519,0.00015424,-0.00114209,0.00022234,-0.00039145,0.00021445,0.0
 0002732,0.00007409,-0.00029399,0.00043167,-0.00013068,-0.00033878,0.00
 298094,0.00269997,0.00385462,-0.01157280,-0.00202001,-0.00231734,0.002
 41516,0.00104389,0.00016097,-0.00095589,0.00064141,0.00123166,0.002250
 78,-0.00176819,-0.00042177,-0.00035214,0.00072353,-0.00023921,-0.00075
 809,0.00027839,-0.01394649,0.03398679,-0.01307674,-0.20353798,-0.40821
 488,-0.17129510,0.26742856,0.52454584,-0.00048520,0.00028781,-0.000100
 99,0.00178059,-0.00106859,0.00044235,-0.00063431,0.00097339,-0.0002258
 6,-0.00205393,0.00147712,-0.00050672,0.00148928,-0.00037033,0.00028385
 ,-0.00052039,-0.01250392,-0.00159179,-0.00019205,-0.00072932,-0.000618
 18,0.00128090,0.00183274,-0.00042809,-0.00108257,-0.00157848,0.0002130
 2,0.00027331,0.00048857,-0.00002379,0.00042708,0.00112796,0.00012707,-
 0.06838774,-0.01851291,-0.02537534,-0.16055670,-0.15388996,-0.25638996
 ,0.23760257,0.22497233,0.24686973,-0.00053405,0.00015524,-0.00017809,0
 .00171825,-0.00082621,0.00060784,-0.00060249,0.00083777,-0.00025966,-0
 .00216889,0.00103474,-0.00069710,0.00162678,0.00122426,0.00057569,-0.0
 0011022,-0.01019108,-0.00688425,-0.00230383,0.00110821,0.00078745,0.00
 145757,0.00132583,-0.00117990,-0.00126313,-0.00090313,0.00088471,0.000
 49323,0.00019662,-0.00038136,0.00041721,0.00076160,-0.00011399,-0.0064
 8984,0.08129323,-0.02851548,-0.14809357,0.03232435,-0.02215515,0.03596
 374,-0.05776833,-0.00538443,0.11973148,0.00163749,0.00018308,0.0004362
 6,-0.00430735,0.00082093,-0.00133331,0.00130408,-0.00114797,0.00049854
 ,0.00416684,-0.00127061,0.00127449,-0.00350524,-0.00165584,0.00003287,
 0.00262237,0.01017669,0.00227473,0.00178316,0.00127409,-0.00132931,-0.
 00174016,-0.00274959,0.00247557,0.00281646,0.00336970,-0.00298350,-0.0
 0102701,-0.00063321,0.00123234,-0.00076174,-0.00175040,0.00046505,0.04
 879716,-0.06458532,0.04259185,0.05721279,-0.74500947,0.05547139,-0.058
 04072,-0.14521077,-0.04681138,-0.05148290,0.94888540,-0.00060696,0.000
 04092,-0.00013423,0.00187698,-0.00054123,0.00048283,-0.00065430,0.0007
 7396,-0.00023923,-0.00254064,0.00090606,-0.00077211,0.00194442,0.00235
 356,0.00061961,-0.00653094,-0.00933700,-0.00028996,-0.00128327,-0.0006
 4787,0.00070591,0.00090927,0.00101512,-0.00051462,-0.00082616,-0.00101
 532,0.00037354,0.00029655,0.00030411,-0.00016162,0.00029004,0.00071082
 ,-0.00000089,-0.02826251,0.07140783,0.00179637,-0.02191004,0.03436591,
 -0.14235072,-0.00565612,-0.04693943,0.03936808,0.06262496,-0.05453926,
 0.10144641,-0.00239894,-0.00002883,-0.00024884,0.00456290,0.00150940,0
 .00289703,-0.00070519,0.00017612,-0.00075911,-0.00004753,0.01026654,0.
 00657270,-0.07063133,-0.02446449,-0.03449894,-0.00437035,-0.01907130,-
 0.03394798,0.00216586,-0.00017313,-0.00197009,0.00021147,0.00021399,0.
 00040157,0.00001494,-0.00003925,-0.00011700,-0.00006282,0.00005285,0.0
 0014047,0.00000121,0.00006730,0.00002876,0.00156578,-0.00131095,0.0011
 6056,-0.00078732,-0.00105964,-0.00062246,-0.00010324,0.00131050,0.0002
 1220,0.00014704,0.00035305,0.00010791,0.07135770,0.00270618,0.00248227
 ,0.00132763,-0.00881591,-0.00123154,-0.00457752,0.00145312,0.00003767,
 0.00134076,0.00232883,-0.04016057,-0.02849116,-0.01998409,-0.12881843,
 -0.11998622,-0.00047325,0.00325666,0.00223213,-0.00026769,-0.00049011,
 -0.00056042,0.00010944,0.00042514,0.00001965,-0.00010099,-0.00047857,-
 0.00006811,0.00001931,0.00015468,0.00010155,0.00002338,0.00029253,0.00
 003071,0.00050286,0.00050601,0.00086498,-0.00049521,0.00086981,-0.0001
 2514,0.00032248,-0.00038061,0.00013125,0.00003369,-0.00031940,-0.00000
 413,0.01992603,0.15354888,-0.00087257,0.00263773,0.00060271,-0.0013263
 1,-0.00286829,0.00057574,0.00047199,0.00115018,-0.00069157,0.00162439,
 0.00672389,0.01535605,-0.03356985,-0.12893379,-0.29481544,-0.00044152,
 -0.00418264,-0.00732193,0.00036618,0.00061998,0.00058801,0.00024457,0.
 00030628,0.00006045,-0.00006110,0.00005717,0.00010351,-0.00002862,-0.0
 0005863,0.00001386,0.00000633,-0.00000635,-0.00001037,0.00005665,-0.00
 009654,0.00053362,-0.00045783,-0.00005722,-0.00040697,0.00034524,0.000
 44214,0.00040590,0.00004831,0.00022679,0.00001646,0.04040018,0.1366742
 9,0.30259204,-0.00191559,0.00136476,-0.00169824,0.00372332,-0.00069402
 ,-0.00040706,-0.00072483,0.00094260,0.00045853,0.00773249,0.00840067,-
 0.01170438,-0.17406423,-0.06601310,0.13508107,-0.02059302,-0.01274093,
 0.02785892,-0.00538587,0.00251096,-0.00371501,-0.00031744,-0.00051505,
 0.00030407,0.00031168,0.00087932,-0.00020705,-0.00006130,-0.00035404,0
 .00006366,-0.00014667,-0.00060760,-0.00000924,0.00241868,-0.00100082,-
 0.00002240,-0.00075016,0.00003897,-0.00073707,0.00040587,0.00031290,0.
 00016949,0.00002800,0.00009299,0.00006836,0.00547784,0.00184819,-0.005
 16341,0.18279960,0.00301210,0.00187970,0.00008490,-0.00921449,-0.00032
 199,-0.00056439,0.00183029,-0.00027772,-0.00041752,-0.01641837,-0.0339
 9979,0.03273067,-0.05825544,-0.09432928,0.06853867,-0.00066999,0.00171
 398,-0.00192909,0.00109380,-0.00050267,0.00007148,0.00007603,0.0003808
 6,-0.00007049,-0.00000664,-0.00036492,0.00000144,-0.00000272,0.0001430
 8,0.00005022,0.00001719,0.00026342,0.00000557,0.00111284,0.00045563,-0
 .00047156,-0.00010449,0.00067741,-0.00017602,0.00000497,-0.00024229,-0
 .00002672,0.00000772,-0.00027037,0.00004044,0.01094384,0.01051326,-0.0
 1286351,0.06662803,0.11404592,-0.00134385,-0.00248135,0.00063287,0.005
 23694,0.00328765,0.00054847,-0.00088395,-0.00092572,-0.00032086,-0.003
 58750,0.00693026,0.00178635,0.13361160,0.07395576,-0.22919068,-0.00998
 601,-0.00517664,0.01111762,-0.00283667,0.00122818,-0.00123519,0.000336
 62,0.00021454,0.00012125,-0.00007009,0.00011837,0.00005495,0.00001752,
 -0.00012671,0.00003561,-0.00001477,-0.00009002,-0.00001412,0.00027390,
 -0.00082552,0.00057228,0.00030382,-0.00017548,0.00023129,-0.00003718,-
 0.00008779,-0.00014210,-0.00003939,-0.00006970,0.00002185,0.01978912,0
 .01060000,-0.01962430,-0.14101259,-0.08551497,0.23320617,0.00010933,0.
 00096282,0.00024810,-0.00108716,-0.00098245,-0.00008015,0.00014380,0.0
 0032138,-0.00002710,0.00213487,-0.00066326,0.00132131,-0.00324583,-0.0
 1801359,-0.03493657,-0.06919021,-0.02013758,-0.03317878,0.00594281,0.0
 0997100,0.02528770,0.00143652,0.00126117,-0.00113485,-0.00057465,0.000
 73552,0.00098053,-0.00006346,-0.00085504,-0.00051102,0.00009353,-0.000
 19297,-0.00023642,-0.00017522,0.00759009,0.00567053,0.00321263,0.00142
 847,0.00235951,-0.00386544,0.00198381,-0.00208094,-0.00025744,-0.00099
 144,-0.00046790,-0.00631938,0.00117274,-0.00129204,0.00173860,-0.00021
 990,0.00076962,0.07314476,0.00016019,-0.00033418,-0.00004391,-0.000193
 50,0.00062636,-0.00004487,0.00002843,-0.00021721,0.00001114,-0.0002970
 6,0.00064976,0.00003390,-0.00136187,0.00429584,0.00406550,-0.01388964,
 -0.11456442,-0.11011368,0.00240663,0.00925905,0.01239454,-0.00040452,0
 .00029942,0.00130692,0.00001596,0.00088355,0.00051199,-0.00023170,-0.0
 0072871,-0.00023725,0.00000833,-0.00041823,-0.00020134,-0.00064072,-0.
 03742406,-0.03149291,-0.00642750,-0.00058649,-0.00727330,0.00262017,0.
 00241270,0.00305440,0.00068935,0.00097165,0.00117471,0.00144098,-0.000
 15105,0.00042836,-0.00021696,0.00005587,-0.00045899,0.01858094,0.13642
 442,0.00035068,0.00023167,0.00005582,-0.00089943,0.00029300,-0.0001303
 2,0.00012697,-0.00006507,0.00003583,0.00038147,-0.00009707,0.00029462,
 -0.00088081,-0.00289131,-0.00562212,-0.02938105,-0.12166491,-0.3180715
 9,-0.00371415,-0.00970075,-0.02168484,-0.00136203,-0.00144728,0.001516
 02,0.00106500,0.00017151,-0.00081044,-0.00043645,0.00062790,0.00087251
 ,-0.00019807,0.00001927,0.00016017,0.00117223,0.00452105,0.01251859,-0
 .00175496,-0.00320182,-0.00060094,-0.00305535,0.00511933,-0.00077123,0
 .00050058,0.00100951,0.00000032,-0.00077611,0.00008453,0.00113106,-0.0
 0016682,0.00019386,0.00110050,0.03548939,0.12519639,0.33097112,0.00012
 975,-0.00006701,0.00002290,-0.00046668,0.00038132,-0.00009768,0.000091
 93,-0.00015881,0.00002933,0.00025020,-0.00014389,-0.00004573,0.0015360
 0,0.00078560,0.00089199,0.00892961,0.00414391,0.02722321,-0.09983138,-
 0.00481958,-0.09549976,0.00035451,-0.00579751,0.00038814,0.00298895,-0
 .00053716,-0.00508702,-0.00127041,0.00059354,0.00190318,-0.00057367,0.
 00014634,0.00085111,0.00025911,-0.00076707,-0.00029609,-0.00161831,-0.
 00103752,-0.00079629,0.00093911,0.00091379,-0.00049212,0.00020894,0.00
 023199,0.00024037,-0.00024631,-0.00034602,-0.00035042,0.00034908,-0.00
 009596,-0.00008730,-0.00327376,-0.00194419,0.00318267,0.09893246,-0.00
 008978,-0.00000788,-0.00003927,0.00039374,-0.00006619,0.00005868,-0.00
 010884,0.00011491,-0.00000051,-0.00031001,-0.00000215,-0.00006521,0.00
 086542,0.00062097,0.00027757,0.00507040,0.00470941,0.01365647,-0.00193
 373,-0.06241564,-0.01001527,-0.01870163,-0.02408391,-0.04258715,0.0046
 1674,0.00368715,-0.00846879,-0.00242905,-0.00028607,0.00327999,-0.0002
 7681,-0.00136905,0.00173306,0.00001733,0.00050159,-0.00136409,0.000734
 03,0.00171218,0.00032382,-0.00050841,-0.00101292,0.00016593,-0.0000106
 0,-0.00069357,-0.00006297,-0.00023994,-0.00008791,-0.00020358,0.000033
 07,-0.00005976,-0.00003676,-0.00210600,-0.00131433,0.00147700,0.011054
 45,0.07459488,-0.00022746,-0.00003771,-0.00007476,0.00096482,-0.000456
 79,0.00026509,-0.00015625,0.00020177,-0.00004752,-0.00043737,-0.000019
 59,0.00046065,-0.00152023,-0.00008729,0.00052817,-0.00741121,-0.003279
 17,-0.01968984,-0.09627487,-0.02135143,-0.33170492,-0.00103105,-0.0086
 0238,-0.00200113,0.00222939,-0.00086615,-0.00280733,0.00126556,0.00290
 104,0.00185748,-0.00072136,0.00074058,0.00063666,0.00037958,0.00170692
 ,0.00000471,0.00030519,-0.00093062,0.00007497,0.00015538,0.00029811,0.
 00018199,-0.00015340,0.00057373,-0.00001183,0.00105902,0.00022476,0.00
 066481,-0.00028701,0.00033695,0.00037696,0.00231694,0.00159199,-0.0011
 7695,0.09966823,0.02636224,0.35329876,-0.00019987,0.00018063,-0.000124
 97,0.00056008,-0.00059508,0.00019775,-0.00016981,0.00032472,-0.0000729
 6,-0.00002471,-0.00004642,0.00000269,-0.00078085,-0.00164562,0.0038732
 2,-0.02034164,0.00950689,-0.00430551,-0.31558496,0.12061900,-0.0320772
 4,0.01254162,-0.00441169,0.00255292,0.00090772,0.00173639,0.00129046,0
 .00025332,-0.00263538,0.00044240,-0.00047154,-0.00098637,-0.00093939,0
 .00281037,0.00040105,-0.00161776,-0.00108237,-0.00330749,0.00019295,0.
 00128427,0.00196162,-0.00136502,0.00003123,0.00083819,0.00037996,0.000
 16766,0.00003692,-0.00000017,-0.00102605,0.00026119,-0.00043984,0.0000
 9572,-0.00034332,0.00035624,-0.00768912,0.00392961,-0.00012393,0.32871
 894,-0.00007086,0.00029768,-0.00010137,0.00032728,-0.00072786,0.000199
 14,-0.00011497,0.00040975,-0.00008022,-0.00002219,0.00009872,-0.000047
 54,-0.00150703,-0.00168279,0.00287735,-0.01351185,0.00749216,-0.002164
 44,0.11045833,-0.11087712,0.01456586,0.03056588,-0.04089579,0.00061956
 ,0.00904342,0.00192523,-0.00646228,-0.00280463,0.00108428,0.00296126,-
 0.00202778,-0.00060729,0.00062709,-0.00047182,0.00090175,-0.00053771,-
 0.00105769,-0.00019917,0.00123777,-0.00000596,-0.00068834,0.00098012,0
 .00018966,-0.00038504,-0.00000621,0.00012692,0.00003129,0.00000373,-0.
 00090995,0.00023968,-0.00036510,0.00015429,-0.00013993,0.00012319,-0.0
 0253621,0.00545829,0.00069304,-0.12582485,0.13826451,0.00002572,-0.000
 21017,0.00010458,0.00019356,0.00027256,-0.00011459,0.00003074,-0.00016
 510,0.00005398,-0.00050382,-0.00006561,0.00030261,0.00152045,0.0022052
 5,-0.00437800,0.02513635,-0.01139706,0.00452616,-0.03544347,0.01661214
 ,-0.07048183,0.01082869,-0.00924327,0.00266799,-0.00106752,0.00171424,
 0.00138072,0.00024637,-0.00034484,-0.00047475,-0.00005258,-0.00031665,
 -0.00043865,-0.00248779,-0.00150670,0.00181836,0.00221721,0.00403735,0
 .00075624,-0.00148532,-0.00073803,-0.00171794,-0.00008735,-0.00149667,
 -0.00035617,0.00017101,0.00018048,0.00022635,0.00112619,-0.00001992,0.
 00072107,-0.00049787,0.00009643,0.00021187,-0.03164873,0.01550884,-0.0
 0083597,0.03177818,-0.01512326,0.06602795||-0.00000953,0.00000422,0.00
 000149,0.00000970,-0.00000716,-0.00000914,-0.00001206,0.00000298,0.000
 00144,0.00001221,-0.00000419,0.00000756,-0.00000285,-0.00000720,0.0000
 0063,-0.00000551,0.00002555,-0.00000197,-0.00000199,-0.00000998,-0.000
 00911,0.00000524,-0.00000943,0.00002324,-0.00001154,-0.00000172,-0.000
 00937,0.00000643,0.00000495,-0.00000094,0.00000672,0.00000215,-0.00000
 378,0.00000088,-0.00000022,-0.00000897,-0.00000955,0.00000487,-0.00001
 053,0.00000841,0.00000037,0.00000807,0.00000539,-0.00000474,0.00000726
 ,-0.00000311,0.00000391,-0.00000077,-0.00000484,0.00000068,-0.00000069
 ,0.00000163,-0.00000571,0.00000220,0.00000064,-0.00000421,0.00000051,0
 .00000373,0.00000488,0.00000286|||@
 The archive entry for this job was punched.


 ALTHOUGH J.J. COULD DIAGNOSE THE FAULTS OF AN
 APPARATUS WITH UNCANNY ACCURACY, IT WAS JUST AS
 WELL NOT TO LET HIM HANDLE IT.
   -- GEORGE THOMPSON, ABOUT HIS FATHER
 Job cpu time:       0 days  0 hours  0 minutes 46.0 seconds.
 Elapsed time:       0 days  0 hours  0 minutes 44.7 seconds.
 File lengths (MBytes):  RWF=    144 Int=      0 D2E=      0 Chk=      6 Scr=      1
 Normal termination of Gaussian 16 at Tue Jun 11 18:37:25 2024.
