 Entering Link 1 = C:\G16W\l1.exe PID=     15880.
  
 Copyright (c) 1988-2019, Gaussian, Inc.  All Rights Reserved.
  
 This is part of the Gaussian(R) 16 program.  It is based on
 the Gaussian(R) 09 system (copyright 2009, Gaussian, Inc.),
 the Gaussian(R) 03 system (copyright 2003, Gaussian, Inc.),
 the Gaussian(R) 98 system (copyright 1998, Gaussian, Inc.),
 the Gaussian(R) 94 system (copyright 1995, Gaussian, Inc.),
 the Gaussian 92(TM) system (copyright 1992, Gaussian, Inc.),
 the Gaussian 90(TM) system (copyright 1990, Gaussian, Inc.),
 the Gaussian 88(TM) system (copyright 1988, Gaussian, Inc.),
 the Gaussian 86(TM) system (copyright 1986, Carnegie Mellon
 University), and the Gaussian 82(TM) system (copyright 1983,
 Carnegie Mellon University). Gaussian is a federally registered
 trademark of Gaussian, Inc.
  
 This software contains proprietary and confidential information,
 including trade secrets, belonging to Gaussian, Inc.
  
 This software is provided under written license and may be
 used, copied, transmitted, or stored only in accord with that
 written license.
  
 The following legend is applicable only to US Government
 contracts under FAR:
  
                    RESTRICTED RIGHTS LEGEND
  
 Use, reproduction and disclosure by the US Government is
 subject to restrictions as set forth in subparagraphs (a)
 and (c) of the Commercial Computer Software - Restricted
 Rights clause in FAR 52.227-19.
  
 Gaussian, Inc.
 340 Quinnipiac St., Bldg. 40, Wallingford CT 06492
  
  
 ---------------------------------------------------------------
 Warning -- This program may not be used in any manner that
 competes with the business of Gaussian, Inc. or will provide
 assistance to any competitor of Gaussian, Inc.  The licensee
 of this program is prohibited from giving any competitor of
 Gaussian, Inc. access to this program.  By using this program,
 the user acknowledges that Gaussian, Inc. is engaged in the
 business of creating and licensing software in the field of
 computational chemistry and represents and warrants to the
 licensee that it is not a competitor of Gaussian, Inc. and that
 it will not use this program in any manner prohibited above.
 ---------------------------------------------------------------
  

 Cite this work as:
 Gaussian 16, Revision C.01,
 M. J. Frisch, G. W. Trucks, H. B. Schlegel, G. E. Scuseria, 
 M. A. Robb, J. R. Cheeseman, G. Scalmani, V. Barone, 
 G. A. Petersson, H. Nakatsuji, X. Li, M. Caricato, A. V. Marenich, 
 J. Bloino, B. G. Janesko, R. Gomperts, B. Mennucci, H. P. Hratchian, 
 J. V. Ortiz, A. F. Izmaylov, J. L. Sonnenberg, D. Williams-Young, 
 F. Ding, F. Lipparini, F. Egidi, J. Goings, B. Peng, A. Petrone, 
 T. Henderson, D. Ranasinghe, V. G. Zakrzewski, J. Gao, N. Rega, 
 G. Zheng, W. Liang, M. Hada, M. Ehara, K. Toyota, R. Fukuda, 
 J. Hasegawa, M. Ishida, T. Nakajima, Y. Honda, O. Kitao, H. Nakai, 
 T. Vreven, K. Throssell, J. A. Montgomery, Jr., J. E. Peralta, 
 F. Ogliaro, M. J. Bearpark, J. J. Heyd, E. N. Brothers, K. N. Kudin, 
 V. N. Staroverov, T. A. Keith, R. Kobayashi, J. Normand, 
 K. Raghavachari, A. P. Rendell, J. C. Burant, S. S. Iyengar, 
 J. Tomasi, M. Cossi, J. M. Millam, M. Klene, C. Adamo, R. Cammi, 
 J. W. Ochterski, R. L. Martin, K. Morokuma, O. Farkas, 
 J. B. Foresman, and D. J. Fox, Gaussian, Inc., Wallingford CT, 2019.
 
 ******************************************
 Gaussian 16:  EM64W-G16RevC.01 30-May-2019
                11-Jun-2024 
 ******************************************
 %nprocshared=24
 Will use up to   24 processors via shared memory.
 %mem=120GB
 ----------------------
 # HF/6-31G(d) Opt Freq
 ----------------------
 1/18=20,19=15,38=1/1,3;
 2/9=110,12=2,17=6,18=5,40=1/2;
 3/5=1,6=6,7=1,11=9,25=1,30=1,71=1/1,2,3;
 4//1;
 5/5=2,38=5/2;
 6/7=2,8=2,9=2,10=2,28=1/1;
 7//1,2,3,16;
 1/18=20,19=15/3(2);
 2/9=110/2;
 99//99;
 2/9=110/2;
 3/5=1,6=6,7=1,11=9,25=1,30=1,71=1/1,2,3;
 4/5=5,16=3,69=1/1;
 5/5=2,38=5/2;
 7//1,2,3,16;
 1/18=20,19=15/3(-5);
 2/9=110/2;
 6/7=2,8=2,9=2,10=2,19=2,28=1/1;
 99/9=1/99;
 ----------------------------------------------------------------------
 O=[N+1]([O-1])OCC(CO[N+1]([O-1])=O)O[N+1]([O-1])[O-1] geometry optimiz
 ation
 ----------------------------------------------------------------------
 Symbolic Z-matrix:
 Charge =  0 Multiplicity = 1
 O                    -3.59911  -1.54738  -0.87982 
 N                    -3.13674  -1.72654   0.24635 
 O                    -3.537    -2.43271   1.16765 
 O                    -1.94486  -1.03051   0.57142 
 C                    -1.48658  -0.20231  -0.49201 
 C                    -0.20629   0.51714  -0.05074 
 C                     0.94526  -0.47848   0.15994 
 O                     2.0116    0.20599   0.81992 
 N                     3.13595  -0.62939   1.04517 
 O                     4.04198  -0.05428   1.64143 
 O                     3.05673  -1.79056   0.64366 
 O                     0.13653   1.42293  -1.09922 
 N                     0.75459   2.59856  -0.50921 
 O                    -0.10739   3.6901   -0.78451 
 O                     1.96868   2.8104   -1.20912 
 H                    -2.24554   0.55082  -0.742 
 H                    -1.28046  -0.79811  -1.39119 
 H                    -0.40671   1.0544    0.88725 
 H                     1.28952  -0.84883  -0.81394 
 H                     0.60983  -1.31123   0.78897 
 

 GradGradGradGradGradGradGradGradGradGradGradGradGradGradGradGradGradGrad
 Berny optimization.
 Initialization pass.
                           ----------------------------
                           !    Initial Parameters    !
                           ! (Angstroms and Degrees)  !
 --------------------------                            --------------------------
 ! Name  Definition              Value          Derivative Info.                !
 --------------------------------------------------------------------------------
 ! R1    R(1,2)                  1.2305         estimate D2E/DX2                !
 ! R2    R(2,3)                  1.2279         estimate D2E/DX2                !
 ! R3    R(2,4)                  1.418          estimate D2E/DX2                !
 ! R4    R(4,5)                  1.4237         estimate D2E/DX2                !
 ! R5    R(5,6)                  1.5335         estimate D2E/DX2                !
 ! R6    R(5,16)                 1.0981         estimate D2E/DX2                !
 ! R7    R(5,17)                 1.0982         estimate D2E/DX2                !
 ! R8    R(6,7)                  1.5368         estimate D2E/DX2                !
 ! R9    R(6,12)                 1.4273         estimate D2E/DX2                !
 ! R10   R(6,18)                 1.0994         estimate D2E/DX2                !
 ! R11   R(7,8)                  1.4287         estimate D2E/DX2                !
 ! R12   R(7,19)                 1.0973         estimate D2E/DX2                !
 ! R13   R(7,20)                 1.0962         estimate D2E/DX2                !
 ! R14   R(8,9)                  1.4187         estimate D2E/DX2                !
 ! R15   R(9,10)                 1.2277         estimate D2E/DX2                !
 ! R16   R(9,11)                 1.2312         estimate D2E/DX2                !
 ! R17   R(12,13)                1.4534         estimate D2E/DX2                !
 ! R18   R(13,14)                1.4178         estimate D2E/DX2                !
 ! R19   R(13,15)                1.4173         estimate D2E/DX2                !
 ! A1    A(1,2,3)              130.387          estimate D2E/DX2                !
 ! A2    A(1,2,4)              117.0121         estimate D2E/DX2                !
 ! A3    A(3,2,4)              112.5997         estimate D2E/DX2                !
 ! A4    A(2,4,5)              112.6369         estimate D2E/DX2                !
 ! A5    A(4,5,6)              109.0715         estimate D2E/DX2                !
 ! A6    A(4,5,16)             110.2769         estimate D2E/DX2                !
 ! A7    A(4,5,17)             110.88           estimate D2E/DX2                !
 ! A8    A(6,5,16)             108.7114         estimate D2E/DX2                !
 ! A9    A(6,5,17)             109.4788         estimate D2E/DX2                !
 ! A10   A(16,5,17)            108.3871         estimate D2E/DX2                !
 ! A11   A(5,6,7)              111.168          estimate D2E/DX2                !
 ! A12   A(5,6,12)             106.6709         estimate D2E/DX2                !
 ! A13   A(5,6,18)             108.8195         estimate D2E/DX2                !
 ! A14   A(7,6,12)             109.3819         estimate D2E/DX2                !
 ! A15   A(7,6,18)             109.6486         estimate D2E/DX2                !
 ! A16   A(12,6,18)            111.1249         estimate D2E/DX2                !
 ! A17   A(6,7,8)              108.1929         estimate D2E/DX2                !
 ! A18   A(6,7,19)             109.3946         estimate D2E/DX2                !
 ! A19   A(6,7,20)             109.9703         estimate D2E/DX2                !
 ! A20   A(8,7,19)             109.7257         estimate D2E/DX2                !
 ! A21   A(8,7,20)             109.1023         estimate D2E/DX2                !
 ! A22   A(19,7,20)            110.4193         estimate D2E/DX2                !
 ! A23   A(7,8,9)              112.5045         estimate D2E/DX2                !
 ! A24   A(8,9,10)             112.7153         estimate D2E/DX2                !
 ! A25   A(8,9,11)             116.9088         estimate D2E/DX2                !
 ! A26   A(10,9,11)            130.3682         estimate D2E/DX2                !
 ! A27   A(6,12,13)            108.4974         estimate D2E/DX2                !
 ! A28   A(12,13,14)           106.5818         estimate D2E/DX2                !
 ! A29   A(12,13,15)           106.5419         estimate D2E/DX2                !
 ! A30   A(14,13,15)           108.0493         estimate D2E/DX2                !
 ! D1    D(1,2,3,4)            179.5661         estimate D2E/DX2                !
 ! D2    D(1,2,4,5)              0.8952         estimate D2E/DX2                !
 ! D3    D(3,2,4,5)           -179.4758         estimate D2E/DX2                !
 ! D4    D(2,4,5,6)            179.5427         estimate D2E/DX2                !
 ! D5    D(2,4,5,16)            60.2294         estimate D2E/DX2                !
 ! D6    D(2,4,5,17)           -59.8264         estimate D2E/DX2                !
 ! D7    D(4,5,6,7)             66.1715         estimate D2E/DX2                !
 ! D8    D(4,5,6,12)          -174.6554         estimate D2E/DX2                !
 ! D9    D(4,5,6,18)           -54.6869         estimate D2E/DX2                !
 ! D10   D(16,5,6,7)          -173.5474         estimate D2E/DX2                !
 ! D11   D(16,5,6,12)          -54.3742         estimate D2E/DX2                !
 ! D12   D(16,5,6,18)           65.5942         estimate D2E/DX2                !
 ! D13   D(17,5,6,7)           -55.3145         estimate D2E/DX2                !
 ! D14   D(17,5,6,12)           63.8587         estimate D2E/DX2                !
 ! D15   D(17,5,6,18)         -176.1729         estimate D2E/DX2                !
 ! D16   D(5,6,7,8)           -168.4983         estimate D2E/DX2                !
 ! D17   D(5,6,7,19)            72.0065         estimate D2E/DX2                !
 ! D18   D(5,6,7,20)           -49.4244         estimate D2E/DX2                !
 ! D19   D(12,6,7,8)            73.9634         estimate D2E/DX2                !
 ! D20   D(12,6,7,19)          -45.5318         estimate D2E/DX2                !
 ! D21   D(12,6,7,20)         -166.9626         estimate D2E/DX2                !
 ! D22   D(18,6,7,8)           -48.1288         estimate D2E/DX2                !
 ! D23   D(18,6,7,19)         -167.624          estimate D2E/DX2                !
 ! D24   D(18,6,7,20)           70.9452         estimate D2E/DX2                !
 ! D25   D(5,6,12,13)          146.8234         estimate D2E/DX2                !
 ! D26   D(7,6,12,13)          -92.849          estimate D2E/DX2                !
 ! D27   D(18,6,12,13)          28.3531         estimate D2E/DX2                !
 ! D28   D(6,7,8,9)           -179.2238         estimate D2E/DX2                !
 ! D29   D(19,7,8,9)           -59.9375         estimate D2E/DX2                !
 ! D30   D(20,7,8,9)            61.1544         estimate D2E/DX2                !
 ! D31   D(7,8,9,10)          -178.3194         estimate D2E/DX2                !
 ! D32   D(7,8,9,11)             0.7811         estimate D2E/DX2                !
 ! D33   D(8,9,10,11)          178.9472         estimate D2E/DX2                !
 ! D34   D(6,12,13,14)        -115.7332         estimate D2E/DX2                !
 ! D35   D(6,12,13,15)         129.0733         estimate D2E/DX2                !
 ! D36   D(12,13,14,15)       -114.1721         estimate D2E/DX2                !
 --------------------------------------------------------------------------------
 Trust Radius=3.00D-01 FncErr=1.00D-07 GrdErr=1.00D-07 EigMax=2.50D+02 EigMin=1.00D-04
 Number of steps in this run=     95 maximum allowed number of steps=    120.
 GradGradGradGradGradGradGradGradGradGradGradGradGradGradGradGradGradGrad

                          Input orientation:                          
 ---------------------------------------------------------------------
 Center     Atomic      Atomic             Coordinates (Angstroms)
 Number     Number       Type             X           Y           Z
 ---------------------------------------------------------------------
      1          8           0       -3.599110   -1.547380   -0.879817
      2          7           0       -3.136736   -1.726544    0.246345
      3          8           0       -3.537001   -2.432712    1.167650
      4          8           0       -1.944865   -1.030505    0.571415
      5          6           0       -1.486576   -0.202308   -0.492010
      6          6           0       -0.206285    0.517145   -0.050735
      7          6           0        0.945261   -0.478482    0.159938
      8          8           0        2.011596    0.205986    0.819916
      9          7           0        3.135952   -0.629393    1.045167
     10          8           0        4.041984   -0.054278    1.641435
     11          8           0        3.056734   -1.790557    0.643662
     12          8           0        0.136526    1.422926   -1.099221
     13          7           0        0.754589    2.598564   -0.509213
     14          8           0       -0.107387    3.690098   -0.784513
     15          8           0        1.968682    2.810396   -1.209119
     16          1           0       -2.245541    0.550819   -0.741998
     17          1           0       -1.280457   -0.798114   -1.391188
     18          1           0       -0.406713    1.054401    0.887251
     19          1           0        1.289520   -0.848831   -0.813939
     20          1           0        0.609826   -1.311230    0.788974
 ---------------------------------------------------------------------
                    Distance matrix (angstroms):
                    1          2          3          4          5
     1  O    0.000000
     2  N    1.230501   0.000000
     3  O    2.231545   1.227880   0.000000
     4  O    2.260479   1.417991   2.203764   0.000000
     5  C    2.534248   2.364633   3.454477   1.423661   0.000000
     6  C    4.057204   3.702693   4.613002   2.409346   1.533454
     7  C    4.782776   4.269406   4.992511   2.971005   2.532813
     8  O    6.119102   5.528922   6.153907   4.152619   3.758332
     9  N    7.064653   6.417824   6.913411   5.118596   4.890100
    10  O    8.183666   7.501785   7.957539   6.159572   5.927772
    11  O    6.832305   6.206532   6.645620   5.059535   4.945094
    12  O    4.777639   4.737505   5.787871   3.625264   2.375827
    13  N    6.023363   5.866842   6.822269   4.650264   3.587200
    14  O    6.295426   6.291235   7.284367   5.243945   4.139873
    15  O    7.078062   6.983373   7.965661   5.765299   4.639983
    16  H    2.500717   2.637695   3.770423   2.077510   1.098054
    17  H    2.489790   2.643723   3.783062   2.085008   1.098177
    18  H    4.481428   3.949359   4.694389   2.610076   2.155871
    19  H    4.938726   4.635334   5.452584   3.523273   2.868508
    20  H    4.533848   3.808367   4.312458   2.579261   2.695465
                    6          7          8          9         10
     6  C    0.000000
     7  C    1.536788   0.000000
     8  O    2.402884   1.428683   0.000000
     9  N    3.699473   2.367600   1.418722   0.000000
    10  O    4.608444   3.458970   2.205699   1.227676   0.000000
    11  O    4.056473   2.532558   2.260434   1.231171   2.231800
    12  O    1.427334   2.419687   2.946169   4.219830   4.994590
    13  N    2.337903   3.154732   3.011824   4.301941   4.740234
    14  O    3.258196   4.401945   4.382159   5.703067   6.092852
    15  O    3.366205   3.706539   3.301784   4.275099   4.542092
    16  H    2.153495   3.471911   4.547713   5.792005   6.751286
    17  H    2.163461   2.731662   4.090820   5.046678   6.170776
    18  H    1.099378   2.169458   2.563701   3.925631   4.646383
    19  H    2.164672   1.097320   2.074492   2.629399   3.773094
    20  H    2.171199   1.096207   2.065879   2.629039   3.753175
                   11         12         13         14         15
    11  O    0.000000
    12  O    4.678860   0.000000
    13  N    5.088554   1.453353   0.000000
    14  O    6.487598   2.301870   1.417829   0.000000
    15  O    5.077935   2.300857   1.417309   2.294391   0.000000
    16  H    5.959548   2.561722   3.639811   3.798497   4.804535
    17  H    4.892524   2.650680   4.056687   4.678482   4.859156
    18  H    4.488718   2.092125   2.383940   3.135488   3.622263
    19  H    2.476792   2.563525   3.501934   4.749115   3.742642
    20  H    2.497645   3.356322   4.122224   5.291837   4.777726
                   16         17         18         19         20
    16  H    0.000000
    17  H    1.781139   0.000000
    18  H    2.507854   3.063743   0.000000
    19  H    3.802742   2.634496   3.064889   0.000000
    20  H    3.736874   2.930796   2.576669   1.801424   0.000000
 Stoichiometry    C3H5N3O9
 Framework group  C1[X(C3H5N3O9)]
 Deg. of freedom    54
 Full point group                 C1      NOp   1
 Largest Abelian subgroup         C1      NOp   1
 Largest concise Abelian subgroup C1      NOp   1
                         Standard orientation:                         
 ---------------------------------------------------------------------
 Center     Atomic      Atomic             Coordinates (Angstroms)
 Number     Number       Type             X           Y           Z
 ---------------------------------------------------------------------
      1          8           0        4.097872    0.304403    0.764872
      2          7           0        3.705072   -0.478840   -0.099056
      3          8           0        4.318329   -1.324531   -0.744356
      4          8           0        2.326175   -0.437262   -0.427096
      5          6           0        1.616638    0.551155    0.312093
      6          6           0        0.143413    0.533248   -0.113073
      7          6           0       -0.535317   -0.784455    0.292757
      8          8           0       -1.805197   -0.851147   -0.358468
      9          7           0       -2.521836   -2.031102   -0.031503
     10          8           0       -3.599467   -2.108175   -0.614563
     11          8           0       -1.983172   -2.810274    0.754954
     12          8           0       -0.490574    1.619886    0.561137
     13          7           0       -1.537008    2.148104   -0.298047
     14          8           0       -1.160031    3.475003   -0.625863
     15          8           0       -2.713898    2.207790    0.489437
     16          1           0        2.029862    1.547961    0.108757
     17          1           0        1.688747    0.359769    1.391058
     18          1           0        0.087606    0.657128   -1.204023
     19          1           0       -0.675750   -0.801960    1.380913
     20          1           0        0.077229   -1.635256   -0.027550
 ---------------------------------------------------------------------
 Rotational constants (GHZ):           0.6618530           0.3285282           0.2321686
 Standard basis: 6-31G(d) (6D, 7F)
 There are   235 symmetry adapted cartesian basis functions of A   symmetry.
 There are   235 symmetry adapted basis functions of A   symmetry.
   235 basis functions,   440 primitive gaussians,   235 cartesian basis functions
    58 alpha electrons       58 beta electrons
       nuclear repulsion energy      1048.2486693468 Hartrees.
 NAtoms=   20 NActive=   20 NUniq=   20 SFac= 1.00D+00 NAtFMM=   60 NAOKFM=F Big=F
 Integral buffers will be    131072 words long.
 Raffenetti 1 integral format.
 Two-electron integral symmetry is turned on.
 One-electron integrals computed using PRISM.
 NBasis=   235 RedAO= T EigKep=  2.65D-03  NBF=   235
 NBsUse=   235 1.00D-06 EigRej= -1.00D+00 NBFU=   235
 ExpMin= 1.61D-01 ExpMax= 5.48D+03 ExpMxC= 8.25D+02 IAcc=3 IRadAn=         5 AccDes= 0.00D+00
 Harris functional with IExCor=  205 and IRadAn=       5 diagonalized for initial guess.
 HarFok:  IExCor=  205 AccDes= 0.00D+00 IRadAn=         5 IDoV= 1 UseB2=F ITyADJ=14
 ICtDFT=  3500011 ScaDFX=  1.000000  1.000000  1.000000  1.000000
 FoFCou: FMM=F IPFlag=           0 FMFlag=      100000 FMFlg1=           0
         NFxFlg=           0 DoJE=T BraDBF=F KetDBF=T FulRan=T
         wScrn=  0.000000 ICntrl=       500 IOpCl=  0 I1Cent=   200000004 NGrid=           0
         NMat0=    1 NMatS0=      1 NMatT0=    0 NMatD0=    1 NMtDS0=    0 NMtDT0=    0
 Petite list used in FoFCou.
 Requested convergence on RMS density matrix=1.00D-08 within 128 cycles.
 Requested convergence on MAX density matrix=1.00D-06.
 Requested convergence on             energy=1.00D-06.
 No special actions if energy rises.
 Integral accuracy reduced to 1.0D-05 until final iterations.
 Initial convergence to 1.0D-05 achieved.  Increase integral accuracy.
 SCF Done:  E(RHF) =  -952.857062621     A.U. after   26 cycles
            NFock= 26  Conv=0.52D-08     -V/T= 2.0047

 **********************************************************************

            Population analysis using the SCF Density.

 **********************************************************************

 Orbital symmetries:
       Occupied  (A) (A) (A) (A) (A) (A) (A) (A) (A) (A) (A) (A)
                 (A) (A) (A) (A) (A) (A) (A) (A) (A) (A) (A) (A)
                 (A) (A) (A) (A) (A) (A) (A) (A) (A) (A) (A) (A)
                 (A) (A) (A) (A) (A) (A) (A) (A) (A) (A) (A) (A)
                 (A) (A) (A) (A) (A) (A) (A) (A) (A) (A)
       Virtual   (A) (A) (A) (A) (A) (A) (A) (A) (A) (A) (A) (A)
                 (A) (A) (A) (A) (A) (A) (A) (A) (A) (A) (A) (A)
                 (A) (A) (A) (A) (A) (A) (A) (A) (A) (A) (A) (A)
                 (A) (A) (A) (A) (A) (A) (A) (A) (A) (A) (A) (A)
                 (A) (A) (A) (A) (A) (A) (A) (A) (A) (A) (A) (A)
                 (A) (A) (A) (A) (A) (A) (A) (A) (A) (A) (A) (A)
                 (A) (A) (A) (A) (A) (A) (A) (A) (A) (A) (A) (A)
                 (A) (A) (A) (A) (A) (A) (A) (A) (A) (A) (A) (A)
                 (A) (A) (A) (A) (A) (A) (A) (A) (A) (A) (A) (A)
                 (A) (A) (A) (A) (A) (A) (A) (A) (A) (A) (A) (A)
                 (A) (A) (A) (A) (A) (A) (A) (A) (A) (A) (A) (A)
                 (A) (A) (A) (A) (A) (A) (A) (A) (A) (A) (A) (A)
                 (A) (A) (A) (A) (A) (A) (A) (A) (A) (A) (A) (A)
                 (A) (A) (A) (A) (A) (A) (A) (A) (A) (A) (A) (A)
                 (A) (A) (A) (A) (A) (A) (A) (A) (A)
 The electronic state is 1-A.
 Alpha  occ. eigenvalues --  -20.72524 -20.72366 -20.71094 -20.68833 -20.68214
 Alpha  occ. eigenvalues --  -20.67741 -20.67411 -20.66682 -20.66405 -15.96905
 Alpha  occ. eigenvalues --  -15.95811 -15.91970 -11.38478 -11.36801 -11.35660
 Alpha  occ. eigenvalues --   -1.68517  -1.67398  -1.56966  -1.47397  -1.46548
 Alpha  occ. eigenvalues --   -1.46108  -1.45471  -1.41834  -1.32842  -1.14433
 Alpha  occ. eigenvalues --   -1.05139  -1.00817  -0.94601  -0.91814  -0.89106
 Alpha  occ. eigenvalues --   -0.83888  -0.82834  -0.81007  -0.80136  -0.79036
 Alpha  occ. eigenvalues --   -0.78282  -0.77282  -0.74837  -0.73426  -0.70700
 Alpha  occ. eigenvalues --   -0.68228  -0.67948  -0.65462  -0.63057  -0.61344
 Alpha  occ. eigenvalues --   -0.60058  -0.57141  -0.56072  -0.55655  -0.55042
 Alpha  occ. eigenvalues --   -0.54673  -0.54207  -0.53760  -0.53225  -0.51687
 Alpha  occ. eigenvalues --   -0.50551  -0.49666  -0.45706
 Alpha virt. eigenvalues --   -0.08883   0.05806   0.06851   0.16591   0.18467
 Alpha virt. eigenvalues --    0.19125   0.22790   0.24378   0.25849   0.26666
 Alpha virt. eigenvalues --    0.27459   0.29736   0.30240   0.30758   0.31857
 Alpha virt. eigenvalues --    0.35731   0.37295   0.40695   0.44254   0.45800
 Alpha virt. eigenvalues --    0.55795   0.56871   0.67004   0.70746   0.72399
 Alpha virt. eigenvalues --    0.73051   0.73085   0.76547   0.77863   0.78860
 Alpha virt. eigenvalues --    0.81197   0.82071   0.83226   0.84290   0.86843
 Alpha virt. eigenvalues --    0.88048   0.88577   0.90562   0.91322   0.93290
 Alpha virt. eigenvalues --    0.96792   1.00095   1.03209   1.03963   1.04341
 Alpha virt. eigenvalues --    1.04528   1.05331   1.05695   1.06543   1.08212
 Alpha virt. eigenvalues --    1.09748   1.10407   1.11116   1.12130   1.13160
 Alpha virt. eigenvalues --    1.14668   1.15460   1.17585   1.18207   1.19168
 Alpha virt. eigenvalues --    1.21149   1.22058   1.22776   1.23880   1.24436
 Alpha virt. eigenvalues --    1.25342   1.25966   1.27694   1.29258   1.31717
 Alpha virt. eigenvalues --    1.35373   1.36249   1.38758   1.39587   1.44081
 Alpha virt. eigenvalues --    1.45717   1.49121   1.52409   1.53293   1.55250
 Alpha virt. eigenvalues --    1.55691   1.59266   1.59759   1.62364   1.63506
 Alpha virt. eigenvalues --    1.66680   1.67578   1.69666   1.70667   1.75033
 Alpha virt. eigenvalues --    1.79654   1.88249   1.91981   1.93319   1.94543
 Alpha virt. eigenvalues --    1.95863   1.96677   1.99382   2.01306   2.03005
 Alpha virt. eigenvalues --    2.03369   2.03990   2.04470   2.04877   2.05441
 Alpha virt. eigenvalues --    2.06348   2.06775   2.07545   2.08376   2.10616
 Alpha virt. eigenvalues --    2.10858   2.16595   2.19174   2.20560   2.22601
 Alpha virt. eigenvalues --    2.23815   2.24932   2.27127   2.28208   2.29572
 Alpha virt. eigenvalues --    2.31644   2.32691   2.33441   2.34566   2.35758
 Alpha virt. eigenvalues --    2.36873   2.38093   2.39128   2.42492   2.43516
 Alpha virt. eigenvalues --    2.47050   2.49953   2.52420   2.56884   2.58680
 Alpha virt. eigenvalues --    2.63504   2.71642   2.76026   2.78043   2.80008
 Alpha virt. eigenvalues --    2.82600   2.87980   2.91235   2.96934   2.98854
 Alpha virt. eigenvalues --    2.99269   3.00198   3.01691   3.05970   3.08591
 Alpha virt. eigenvalues --    3.10741   3.13311   3.15443   3.15960   3.16785
 Alpha virt. eigenvalues --    3.17504   3.22597   3.25982   3.34440   3.36514
 Alpha virt. eigenvalues --    3.38996   3.41716   3.70402   3.91860   3.94739
 Alpha virt. eigenvalues --    3.97285   4.16725   4.17897   4.19155   4.21250
 Alpha virt. eigenvalues --    4.25156   4.37604   4.43737   4.49283   4.61243
 Alpha virt. eigenvalues --    4.74245   4.93925
          Condensed to atoms (all electrons):
               1          2          3          4          5          6
     1  O    8.253810   0.325259  -0.073981  -0.086526   0.000404   0.000785
     2  N    0.325259   5.234213   0.374438   0.201240  -0.037785   0.002709
     3  O   -0.073981   0.374438   8.174097  -0.084701   0.003286  -0.000076
     4  O   -0.086526   0.201240  -0.084701   8.429189   0.124370  -0.031528
     5  C    0.000404  -0.037785   0.003286   0.124370   4.917411   0.352415
     6  C    0.000785   0.002709  -0.000076  -0.031528   0.352415   4.993272
     7  C   -0.000017  -0.000100   0.000002   0.003055  -0.065008   0.310043
     8  O    0.000000   0.000000   0.000000  -0.000003   0.001351  -0.033305
     9  N    0.000000   0.000000   0.000000   0.000001  -0.000043   0.002935
    10  O    0.000000   0.000000   0.000000   0.000000   0.000000  -0.000086
    11  O    0.000000   0.000000   0.000000   0.000000   0.000012   0.000755
    12  O    0.000002  -0.000009   0.000000   0.000624  -0.035188   0.134927
    13  N    0.000000   0.000000   0.000000  -0.000020   0.003150  -0.043766
    14  O    0.000000   0.000000   0.000000   0.000000  -0.000393   0.002381
    15  O    0.000000   0.000000   0.000000   0.000000  -0.000086   0.001713
    16  H    0.001760  -0.003154   0.000016  -0.027661   0.398541  -0.037487
    17  H    0.001524  -0.003140   0.000006  -0.031174   0.392395  -0.035587
    18  H   -0.000004  -0.000125  -0.000003   0.002373  -0.030296   0.386996
    19  H    0.000000  -0.000011   0.000000   0.000163  -0.001549  -0.030780
    20  H    0.000005   0.000086  -0.000008   0.002053   0.000067  -0.040089
               7          8          9         10         11         12
     1  O   -0.000017   0.000000   0.000000   0.000000   0.000000   0.000002
     2  N   -0.000100   0.000000   0.000000   0.000000   0.000000  -0.000009
     3  O    0.000002   0.000000   0.000000   0.000000   0.000000   0.000000
     4  O    0.003055  -0.000003   0.000001   0.000000   0.000000   0.000624
     5  C   -0.065008   0.001351  -0.000043   0.000000   0.000012  -0.035188
     6  C    0.310043  -0.033305   0.002935  -0.000086   0.000755   0.134927
     7  C    4.967613   0.133560  -0.038775   0.003377   0.000499  -0.054731
     8  O    0.133560   8.426501   0.205438  -0.084589  -0.086593   0.002958
     9  N   -0.038775   0.205438   5.226791   0.376376   0.324810  -0.000098
    10  O    0.003377  -0.084589   0.376376   8.172532  -0.073937   0.000000
    11  O    0.000499  -0.086593   0.324810  -0.073937   8.263849  -0.000003
    12  O   -0.054731   0.002958  -0.000098   0.000000  -0.000003   8.349705
    13  N   -0.002821   0.001219  -0.000012  -0.000001   0.000001   0.123294
    14  O   -0.000004   0.000012   0.000000   0.000000   0.000000  -0.053459
    15  O    0.001301  -0.000102   0.000014  -0.000001   0.000000  -0.049360
    16  H    0.004478  -0.000030   0.000001   0.000000   0.000000   0.002820
    17  H   -0.006949  -0.000016  -0.000003   0.000000  -0.000003   0.000981
    18  H   -0.043362   0.001125  -0.000194  -0.000004  -0.000009  -0.026917
    19  H    0.388442  -0.030341  -0.003592  -0.000019   0.001511  -0.001302
    20  H    0.394949  -0.031491  -0.003173   0.000014   0.001686   0.002486
              13         14         15         16         17         18
     1  O    0.000000   0.000000   0.000000   0.001760   0.001524  -0.000004
     2  N    0.000000   0.000000   0.000000  -0.003154  -0.003140  -0.000125
     3  O    0.000000   0.000000   0.000000   0.000016   0.000006  -0.000003
     4  O   -0.000020   0.000000   0.000000  -0.027661  -0.031174   0.002373
     5  C    0.003150  -0.000393  -0.000086   0.398541   0.392395  -0.030296
     6  C   -0.043766   0.002381   0.001713  -0.037487  -0.035587   0.386996
     7  C   -0.002821  -0.000004   0.001301   0.004478  -0.006949  -0.043362
     8  O    0.001219   0.000012  -0.000102  -0.000030  -0.000016   0.001125
     9  N   -0.000012   0.000000   0.000014   0.000001  -0.000003  -0.000194
    10  O   -0.000001   0.000000  -0.000001   0.000000   0.000000  -0.000004
    11  O    0.000001   0.000000   0.000000   0.000000  -0.000003  -0.000009
    12  O    0.123294  -0.053459  -0.049360   0.002820   0.000981  -0.026917
    13  N    6.068065   0.181543   0.190066  -0.000225  -0.000108  -0.005599
    14  O    0.181543   8.204017  -0.086074   0.000176   0.000005   0.001193
    15  O    0.190066  -0.086074   8.169946   0.000003   0.000000   0.000113
    16  H   -0.000225   0.000176   0.000003   0.446466  -0.028416  -0.003847
    17  H   -0.000108   0.000005   0.000000  -0.028416   0.480136   0.003831
    18  H   -0.005599   0.001193   0.000113  -0.003847   0.003831   0.464038
    19  H   -0.000012   0.000000   0.000044  -0.000115   0.002551   0.003553
    20  H   -0.000006   0.000002   0.000003   0.000080   0.000107   0.000095
              19         20
     1  O    0.000000   0.000005
     2  N   -0.000011   0.000086
     3  O    0.000000  -0.000008
     4  O    0.000163   0.002053
     5  C   -0.001549   0.000067
     6  C   -0.030780  -0.040089
     7  C    0.388442   0.394949
     8  O   -0.030341  -0.031491
     9  N   -0.003592  -0.003173
    10  O   -0.000019   0.000014
    11  O    0.001511   0.001686
    12  O   -0.001302   0.002486
    13  N   -0.000012  -0.000006
    14  O    0.000000   0.000002
    15  O    0.000044   0.000003
    16  H   -0.000115   0.000080
    17  H    0.002551   0.000107
    18  H    0.003553   0.000095
    19  H    0.470079  -0.025450
    20  H   -0.025450   0.466022
 Mulliken charges:
               1
     1  O   -0.423021
     2  N    0.906378
     3  O   -0.393075
     4  O   -0.501456
     5  C   -0.023053
     6  C    0.063775
     7  C    0.004449
     8  O   -0.505695
     9  N    0.909525
    10  O   -0.393662
    11  O   -0.432576
    12  O   -0.396729
    13  N    0.485231
    14  O   -0.249400
    15  O   -0.227579
    16  H    0.246595
    17  H    0.223861
    18  H    0.247042
    19  H    0.226828
    20  H    0.232561
 Sum of Mulliken charges =   0.00000
 Mulliken charges with hydrogens summed into heavy atoms:
               1
     1  O   -0.423021
     2  N    0.906378
     3  O   -0.393075
     4  O   -0.501456
     5  C    0.447403
     6  C    0.310817
     7  C    0.463838
     8  O   -0.505695
     9  N    0.909525
    10  O   -0.393662
    11  O   -0.432576
    12  O   -0.396729
    13  N    0.485231
    14  O   -0.249400
    15  O   -0.227579
 Electronic spatial extent (au):  <R**2>=           4251.5866
 Charge=              0.0000 electrons
 Dipole moment (field-independent basis, Debye):
    X=              2.3179    Y=             -0.0082    Z=              0.4488  Tot=              2.3610
 Quadrupole moment (field-independent basis, Debye-Ang):
   XX=           -111.4066   YY=            -99.4537   ZZ=            -83.1316
   XY=              3.3298   XZ=             -0.1823   YZ=             -0.7034
 Traceless Quadrupole moment (field-independent basis, Debye-Ang):
   XX=            -13.4093   YY=             -1.4564   ZZ=             14.8657
   XY=              3.3298   XZ=             -0.1823   YZ=             -0.7034
 Octapole moment (field-independent basis, Debye-Ang**2):
  XXX=            -27.5664  YYY=            -11.5757  ZZZ=              1.4234  XYY=             28.6763
  XXY=             23.8535  XXZ=              6.3782  XZZ=             -2.6723  YZZ=              0.8311
  YYZ=              2.0934  XYZ=             -8.7887
 Hexadecapole moment (field-independent basis, Debye-Ang**3):
 XXXX=          -3707.1190 YYYY=          -1699.5053 ZZZZ=           -196.3749 XXXY=             16.9082
 XXXZ=            -44.1598 YYYX=              0.2568 YYYZ=             56.0702 ZZZX=             -1.8828
 ZZZY=              3.6225 XXYY=           -893.6632 XXZZ=           -577.9712 YYZZ=           -300.6854
 XXYZ=            -41.0905 YYXZ=              5.9260 ZZXY=             -2.5252
 N-N= 1.048248669347D+03 E-N=-4.339213927081D+03  KE= 9.484183389272D+02
 Calling FoFJK, ICntrl=      2127 FMM=F ISym2X=0 I1Cent= 0 IOpClX= 0 NMat=1 NMatS=1 NMatT=0.
 ***** Axes restored to original set *****
 -------------------------------------------------------------------
 Center     Atomic                   Forces (Hartrees/Bohr)
 Number     Number              X              Y              Z
 -------------------------------------------------------------------
      1        8           0.030187448   -0.015402961    0.083023994
      2        7          -0.015080245   -0.016487052    0.007946025
      3        8           0.030587029    0.057278660   -0.076707019
      4        8          -0.039162874   -0.021353738   -0.015905540
      5        6          -0.004147486    0.011565059   -0.026326425
      6        6           0.005499942   -0.015891418    0.024126068
      7        6          -0.006608471   -0.010622993   -0.004718777
      8        8           0.037253002   -0.035005586    0.004881249
      9        7           0.018626261    0.002638250    0.012545724
     10        8          -0.072024797   -0.049806824   -0.049679725
     11        8           0.010573739    0.082372364    0.029795572
     12        8           0.020130139    0.029834263    0.068466725
     13        7           0.013028910    0.129891517   -0.256825993
     14        8           0.067401401   -0.110410299    0.078976070
     15        8          -0.102389774   -0.043028845    0.113923569
     16        1           0.009249559   -0.009674949    0.003732102
     17        1          -0.004464981    0.004616976    0.011179210
     18        1           0.002025334   -0.002584444   -0.012478351
     19        1          -0.004384214    0.003309868    0.012238467
     20        1           0.003700078    0.008762152   -0.008192947
 -------------------------------------------------------------------
 Cartesian Forces:  Max     0.256825993 RMS     0.055081140

 GradGradGradGradGradGradGradGradGradGradGradGradGradGradGradGradGradGrad
 Berny optimization.
 FormGI is forming the generalized inverse of G from B-inverse, IUseBI=4.
 Internal  Forces:  Max     0.150398746 RMS     0.035270648
 Search for a local minimum.
 Step number   1 out of a maximum of   95
 All quantities printed in internal units (Hartrees-Bohrs-Radians)
 Mixed Optimization -- RFO/linear search
 Second derivative matrix not updated -- first step.
 ITU=  0
     Eigenvalues ---    0.00279   0.00323   0.00589   0.01047   0.01057
     Eigenvalues ---    0.01312   0.01330   0.01379   0.02899   0.02900
     Eigenvalues ---    0.04436   0.05053   0.05205   0.05334   0.05820
     Eigenvalues ---    0.05971   0.07129   0.08074   0.11131   0.11140
     Eigenvalues ---    0.13600   0.13694   0.16224   0.19415   0.19466
     Eigenvalues ---    0.22026   0.22084   0.24998   0.25000   0.25000
     Eigenvalues ---    0.25000   0.25000   0.25000   0.25000   0.25000
     Eigenvalues ---    0.28805   0.29107   0.33751   0.33885   0.33898
     Eigenvalues ---    0.33980   0.34105   0.37809   0.41179   0.41375
     Eigenvalues ---    0.41914   0.42653   0.42764   0.42789   0.42868
     Eigenvalues ---    0.90600   0.90878   0.91976   0.92062
 RFO step:  Lambda=-1.78389374D-01 EMin= 2.79319070D-03
 Linear search not attempted -- first point.
 Maximum step size (   0.300) exceeded in Quadratic search.
    -- Step size scaled by   0.588
 Iteration  1 RMS(Cart)=  0.05182725 RMS(Int)=  0.00421136
 Iteration  2 RMS(Cart)=  0.00428411 RMS(Int)=  0.00185619
 Iteration  3 RMS(Cart)=  0.00004660 RMS(Int)=  0.00185587
 Iteration  4 RMS(Cart)=  0.00000052 RMS(Int)=  0.00185587
 Variable       Old X    -DE/DX   Delta X   Delta X   Delta X     New X
                                 (Linear)    (Quad)   (Total)
    R1        2.32531  -0.08957   0.00000  -0.04843  -0.04843   2.27688
    R2        2.32036  -0.10047   0.00000  -0.05378  -0.05378   2.26658
    R3        2.67961  -0.05414   0.00000  -0.05251  -0.05251   2.62710
    R4        2.69033  -0.00568   0.00000  -0.00558  -0.00558   2.68475
    R5        2.89781  -0.00717   0.00000  -0.00898  -0.00898   2.88882
    R6        2.07502  -0.01388   0.00000  -0.01577  -0.01577   2.05925
    R7        2.07525  -0.01250   0.00000  -0.01420  -0.01420   2.06105
    R8        2.90411  -0.01114   0.00000  -0.01403  -0.01403   2.89007
    R9        2.69727   0.00021   0.00000   0.00021   0.00021   2.69748
   R10        2.07752  -0.01228   0.00000  -0.01399  -0.01399   2.06353
   R11        2.69982  -0.00520   0.00000  -0.00518  -0.00518   2.69464
   R12        2.07363  -0.01335   0.00000  -0.01515  -0.01515   2.05848
   R13        2.07153  -0.01249   0.00000  -0.01413  -0.01413   2.05740
   R14        2.68100  -0.05583   0.00000  -0.05426  -0.05426   2.62674
   R15        2.31997  -0.10062   0.00000  -0.05382  -0.05382   2.26615
   R16        2.32658  -0.08809   0.00000  -0.04775  -0.04775   2.27883
   R17        2.74644  -0.05434   0.00000  -0.05740  -0.05740   2.68904
   R18        2.67931  -0.14131   0.00000  -0.13702  -0.13702   2.54229
   R19        2.67833  -0.15040   0.00000  -0.14564  -0.14564   2.53269
    A1        2.27568  -0.00532   0.00000  -0.00729  -0.00729   2.26839
    A2        2.04225   0.00469   0.00000   0.00643   0.00643   2.04868
    A3        1.96523   0.00063   0.00000   0.00087   0.00087   1.96610
    A4        1.96588   0.00989   0.00000   0.01357   0.01357   1.97946
    A5        1.90366  -0.01859   0.00000  -0.02808  -0.02806   1.87560
    A6        1.92469   0.00564   0.00000   0.00762   0.00761   1.93231
    A7        1.93522   0.00334   0.00000   0.00307   0.00313   1.93835
    A8        1.89737   0.00424   0.00000   0.00622   0.00618   1.90355
    A9        1.91077   0.00755   0.00000   0.01219   0.01216   1.92292
   A10        1.89171  -0.00192   0.00000  -0.00057  -0.00065   1.89106
   A11        1.94025   0.00213   0.00000   0.00347   0.00350   1.94374
   A12        1.86176  -0.00858   0.00000  -0.01551  -0.01552   1.84624
   A13        1.89926   0.00224   0.00000   0.00389   0.00386   1.90312
   A14        1.90907   0.00611   0.00000   0.01045   0.01047   1.91954
   A15        1.91373  -0.00126   0.00000  -0.00008  -0.00010   1.91363
   A16        1.93950  -0.00078   0.00000  -0.00259  -0.00262   1.93688
   A17        1.88832  -0.01487   0.00000  -0.02215  -0.02214   1.86619
   A18        1.90930   0.00376   0.00000   0.00543   0.00543   1.91472
   A19        1.91934   0.00353   0.00000   0.00509   0.00509   1.92443
   A20        1.91508   0.00459   0.00000   0.00641   0.00641   1.92148
   A21        1.90419   0.00501   0.00000   0.00728   0.00727   1.91147
   A22        1.92718  -0.00225   0.00000  -0.00241  -0.00245   1.92473
   A23        1.96357   0.01199   0.00000   0.01645   0.01645   1.98003
   A24        1.96725   0.00150   0.00000   0.00207   0.00206   1.96932
   A25        2.04044   0.00508   0.00000   0.00698   0.00698   2.04742
   A26        2.27535  -0.00656   0.00000  -0.00900  -0.00900   2.26635
   A27        1.89364   0.02746   0.00000   0.03768   0.03768   1.93131
   A28        1.86020   0.04380   0.00000   0.07993   0.07302   1.93322
   A29        1.85951   0.00301   0.00000   0.03485   0.02345   1.88296
   A30        1.88582   0.06844   0.00000   0.13039   0.12372   2.00953
    D1        3.13402   0.00053   0.00000   0.00149   0.00149   3.13551
    D2        0.01562  -0.00030   0.00000  -0.00091  -0.00091   0.01471
    D3       -3.13244   0.00011   0.00000   0.00030   0.00031  -3.13213
    D4        3.13361  -0.00077   0.00000  -0.00135  -0.00138   3.13223
    D5        1.05120   0.00211   0.00000   0.00378   0.00380   1.05500
    D6       -1.04417  -0.00135   0.00000  -0.00248  -0.00246  -1.04663
    D7        1.15491  -0.00120   0.00000  -0.00135  -0.00136   1.15355
    D8       -3.04831   0.00213   0.00000   0.00376   0.00374  -3.04457
    D9       -0.95447  -0.00243   0.00000  -0.00598  -0.00601  -0.96048
   D10       -3.02897  -0.00286   0.00000  -0.00507  -0.00508  -3.03405
   D11       -0.94901   0.00048   0.00000   0.00004   0.00002  -0.94899
   D12        1.14484  -0.00409   0.00000  -0.00970  -0.00973   1.13511
   D13       -0.96542   0.00163   0.00000   0.00488   0.00493  -0.96049
   D14        1.11454   0.00497   0.00000   0.00999   0.01002   1.12457
   D15       -3.07480   0.00040   0.00000   0.00024   0.00028  -3.07452
   D16       -2.94085  -0.00303   0.00000  -0.00607  -0.00606  -2.94691
   D17        1.25675  -0.00196   0.00000  -0.00386  -0.00385   1.25290
   D18       -0.86262  -0.00382   0.00000  -0.00758  -0.00758  -0.87019
   D19        1.29091   0.00245   0.00000   0.00442   0.00442   1.29533
   D20       -0.79468   0.00352   0.00000   0.00663   0.00664  -0.78804
   D21       -2.91405   0.00166   0.00000   0.00291   0.00291  -2.91114
   D22       -0.84001   0.00030   0.00000   0.00097   0.00096  -0.83904
   D23       -2.92559   0.00137   0.00000   0.00318   0.00318  -2.92241
   D24        1.23823  -0.00049   0.00000  -0.00054  -0.00055   1.23768
   D25        2.56255  -0.00030   0.00000   0.00065   0.00070   2.56325
   D26       -1.62052   0.00061   0.00000   0.00154   0.00152  -1.61900
   D27        0.49485   0.00259   0.00000   0.00672   0.00669   0.50154
   D28       -3.12805   0.00033   0.00000   0.00102   0.00102  -3.12703
   D29       -1.04611  -0.00132   0.00000  -0.00190  -0.00192  -1.04803
   D30        1.06735   0.00190   0.00000   0.00368   0.00371   1.07105
   D31       -3.11226  -0.00051   0.00000  -0.00154  -0.00155  -3.11381
   D32        0.01363   0.00033   0.00000   0.00097   0.00098   0.01461
   D33        3.12322   0.00113   0.00000   0.00314   0.00313   3.12635
   D34       -2.01993   0.05359   0.00000   0.11259   0.11288  -1.90705
   D35        2.25275  -0.04660   0.00000  -0.09030  -0.09059   2.16217
   D36       -1.99268  -0.05732   0.00000  -0.14105  -0.14943  -2.14211
         Item               Value     Threshold  Converged?
 Maximum Force            0.150399     0.000450     NO 
 RMS     Force            0.035271     0.000300     NO 
 Maximum Displacement     0.223283     0.001800     NO 
 RMS     Displacement     0.052341     0.001200     NO 
 Predicted change in Energy=-8.584863D-02
 GradGradGradGradGradGradGradGradGradGradGradGradGradGradGradGradGradGrad

                          Input orientation:                          
 ---------------------------------------------------------------------
 Center     Atomic      Atomic             Coordinates (Angstroms)
 Number     Number       Type             X           Y           Z
 ---------------------------------------------------------------------
      1          8           0       -3.590272   -1.543070   -0.826046
      2          7           0       -3.102127   -1.705222    0.263512
      3          8           0       -3.468684   -2.389375    1.177939
      4          8           0       -1.927443   -1.017721    0.546564
      5          6           0       -1.484933   -0.192353   -0.521780
      6          6           0       -0.203327    0.503554   -0.063388
      7          6           0        0.932653   -0.499622    0.141874
      8          8           0        1.983874    0.194610    0.809924
      9          7           0        3.102810   -0.594439    1.049743
     10          8           0        3.967752   -0.008671    1.638659
     11          8           0        3.067269   -1.736569    0.664415
     12          8           0        0.135910    1.418098   -1.105564
     13          7           0        0.754979    2.582110   -0.570126
     14          8           0       -0.064037    3.645053   -0.666356
     15          8           0        1.946664    2.725770   -1.166363
     16          1           0       -2.233610    0.562328   -0.761374
     17          1           0       -1.292542   -0.782077   -1.418861
     18          1           0       -0.399824    1.032011    0.871776
     19          1           0        1.279720   -0.864221   -0.824145
     20          1           0        0.595169   -1.330194    0.759598
 ---------------------------------------------------------------------
                    Distance matrix (angstroms):
                    1          2          3          4          5
     1  O    0.000000
     2  N    1.204872   0.000000
     3  O    2.178755   1.199420   0.000000
     4  O    2.219246   1.390201   2.157660   0.000000
     5  C    2.519815   2.349632   3.413389   1.420706   0.000000
     6  C    4.030101   3.659042   4.535691   2.378843   1.528700
     7  C    4.741572   4.212803   4.900650   2.934680   2.525782
     8  O    6.063583   5.456677   6.045065   4.103352   3.735746
     9  N    7.015400   6.352420   6.813426   5.073046   4.866081
    10  O    8.096474   7.399493   7.821803   6.079817   5.867965
    11  O    6.825084   6.182487   6.588516   5.047551   4.951182
    12  O    4.767712   4.702592   5.718771   3.594463   2.358281
    13  N    5.996985   5.826958   6.753572   4.626140   3.566117
    14  O    6.275066   6.222546   7.169893   5.165744   4.094573
    15  O    6.999748   6.867933   7.809382   5.653011   4.550471
    16  H    2.505477   2.635620   3.741510   2.073884   1.089709
    17  H    2.492008   2.637645   3.749983   2.078827   1.090661
    18  H    4.437635   3.894209   4.606248   2.576971   2.149076
    19  H    4.917079   4.592478   5.374177   3.491174   2.861142
    20  H    4.480793   3.749232   4.220401   2.550803   2.695077
                    6          7          8          9         10
     6  C    0.000000
     7  C    1.529361   0.000000
     8  O    2.375283   1.425943   0.000000
     9  N    3.657211   2.354315   1.390011   0.000000
    10  O    4.534009   3.419536   2.159606   1.199196   0.000000
    11  O    4.030464   2.521839   2.219091   1.205902   2.178452
    12  O    1.427447   2.422509   2.929332   4.183079   4.924372
    13  N    2.344255   3.167899   3.019086   4.269280   4.681110
    14  O    3.201872   4.338773   4.275383   5.563021   5.909155
    15  O    3.282873   3.625307   3.211520   4.155910   4.407960
    16  H    2.147717   3.459598   4.515680   5.752880   6.674061
    17  H    2.162532   2.732612   4.081213   5.044634   6.133293
    18  H    1.091975   2.157348   2.527268   3.865935   4.554871
    19  H    2.156151   1.089303   2.070540   2.628288   3.744715
    20  H    2.162761   1.088728   2.063022   2.629407   3.727397
                   11         12         13         14         15
    11  O    0.000000
    12  O    4.655922   0.000000
    13  N    5.051907   1.422978   0.000000
    14  O    6.366936   2.278642   1.345323   0.000000
    15  O    4.951764   2.234397   1.340242   2.266717   0.000000
    16  H    5.951228   2.542722   3.612169   3.770844   4.724318
    17  H    4.925347   2.641856   4.028704   4.655638   4.781339
    18  H    4.441707   2.084694   2.411527   3.050671   3.539609
    19  H    2.484378   2.568361   3.495294   4.707880   3.667419
    20  H    2.507085   3.353037   4.135194   5.217373   4.688998
                   16         17         18         19         20
    16  H    0.000000
    17  H    1.767859   0.000000
    18  H    2.500110   3.055303   0.000000
    19  H    3.792422   2.641394   3.048395   0.000000
    20  H    3.727866   2.934207   2.565659   1.787171   0.000000
 Stoichiometry    C3H5N3O9
 Framework group  C1[X(C3H5N3O9)]
 Deg. of freedom    54
 Full point group                 C1      NOp   1
 Largest Abelian subgroup         C1      NOp   1
 Largest concise Abelian subgroup C1      NOp   1
                         Standard orientation:                         
 ---------------------------------------------------------------------
 Center     Atomic      Atomic             Coordinates (Angstroms)
 Number     Number       Type             X           Y           Z
 ---------------------------------------------------------------------
      1          8           0        4.089095    0.282381    0.720094
      2          7           0        3.666060   -0.479943   -0.111541
      3          8           0        4.238965   -1.316237   -0.752635
      4          8           0        2.307486   -0.421312   -0.400504
      5          6           0        1.614881    0.572795    0.341423
      6          6           0        0.148682    0.528089   -0.088908
      7          6           0       -0.512979   -0.787879    0.322649
      8          8           0       -1.773593   -0.844157   -0.341428
      9          7           0       -2.504158   -1.988997   -0.045207
     10          8           0       -3.548390   -2.039643   -0.632649
     11          8           0       -2.013435   -2.773897    0.727659
     12          8           0       -0.484504    1.621203    0.575759
     13          7           0       -1.525901    2.162639   -0.228731
     14          8           0       -1.182943    3.374984   -0.700425
     15          8           0       -2.658447    2.129784    0.487167
     16          1           0        2.018052    1.562728    0.129409
     17          1           0        1.697963    0.390613    1.413547
     18          1           0        0.091956    0.644107   -1.173219
     19          1           0       -0.657623   -0.804397    1.402179
     20          1           0        0.100266   -1.631813    0.011148
 ---------------------------------------------------------------------
 Rotational constants (GHZ):           0.6852807           0.3348684           0.2382355
 Standard basis: 6-31G(d) (6D, 7F)
 There are   235 symmetry adapted cartesian basis functions of A   symmetry.
 There are   235 symmetry adapted basis functions of A   symmetry.
   235 basis functions,   440 primitive gaussians,   235 cartesian basis functions
    58 alpha electrons       58 beta electrons
       nuclear repulsion energy      1063.4385032402 Hartrees.
 NAtoms=   20 NActive=   20 NUniq=   20 SFac= 1.00D+00 NAtFMM=   60 NAOKFM=F Big=F
 Integral buffers will be    131072 words long.
 Raffenetti 1 integral format.
 Two-electron integral symmetry is turned on.
 One-electron integrals computed using PRISM.
 NBasis=   235 RedAO= T EigKep=  2.52D-03  NBF=   235
 NBsUse=   235 1.00D-06 EigRej= -1.00D+00 NBFU=   235
 Initial guess from the checkpoint file:  "C:\g16w\Scratch\Gau-15880.chk"
 B after Tr=     0.000000    0.000000    0.000000
         Rot=    1.000000   -0.000231   -0.000517    0.000740 Ang=  -0.11 deg.
 ExpMin= 1.61D-01 ExpMax= 5.48D+03 ExpMxC= 8.25D+02 IAcc=3 IRadAn=         5 AccDes= 0.00D+00
 Harris functional with IExCor=  205 and IRadAn=       5 diagonalized for initial guess.
 HarFok:  IExCor=  205 AccDes= 0.00D+00 IRadAn=         5 IDoV= 1 UseB2=F ITyADJ=14
 ICtDFT=  3500011 ScaDFX=  1.000000  1.000000  1.000000  1.000000
 FoFCou: FMM=F IPFlag=           0 FMFlag=      100000 FMFlg1=           0
         NFxFlg=           0 DoJE=T BraDBF=F KetDBF=T FulRan=T
         wScrn=  0.000000 ICntrl=       500 IOpCl=  0 I1Cent=   200000004 NGrid=           0
         NMat0=    1 NMatS0=      1 NMatT0=    0 NMatD0=    1 NMtDS0=    0 NMtDT0=    0
 Petite list used in FoFCou.
 Requested convergence on RMS density matrix=1.00D-08 within 128 cycles.
 Requested convergence on MAX density matrix=1.00D-06.
 Requested convergence on             energy=1.00D-06.
 No special actions if energy rises.
 Integral accuracy reduced to 1.0D-05 until final iterations.
 Initial convergence to 1.0D-05 achieved.  Increase integral accuracy.
 SCF Done:  E(RHF) =  -952.953309291     A.U. after   22 cycles
            NFock= 22  Conv=0.40D-08     -V/T= 2.0039
 Calling FoFJK, ICntrl=      2127 FMM=F ISym2X=0 I1Cent= 0 IOpClX= 0 NMat=1 NMatS=1 NMatT=0.
 ***** Axes restored to original set *****
 -------------------------------------------------------------------
 Center     Atomic                   Forces (Hartrees/Bohr)
 Number     Number              X              Y              Z
 -------------------------------------------------------------------
      1        8           0.017924376   -0.007250153    0.043914477
      2        7          -0.003229641   -0.008358514    0.009706881
      3        8           0.014978768    0.030914057   -0.042928171
      4        8          -0.027322769   -0.014148651   -0.011681390
      5        6          -0.001106353    0.010077840   -0.018369214
      6        6           0.001594818   -0.013708112    0.016918691
      7        6          -0.004975151   -0.004572321   -0.003951312
      8        8           0.025203023   -0.024966950    0.003166814
      9        7           0.006896181    0.008706551    0.008338360
     10        8          -0.038063846   -0.028795900   -0.027780391
     11        8           0.003491878    0.044283706    0.015104450
     12        8           0.013874935    0.021555014    0.060121523
     13        7           0.024965715    0.129193319   -0.223169674
     14        8           0.071985337   -0.115694598    0.059563912
     15        8          -0.109771216   -0.030107291    0.106552276
     16        1           0.004943564   -0.005910136    0.003054132
     17        1          -0.002645215    0.001819347    0.007184329
     18        1           0.000964838   -0.000192406   -0.008399038
     19        1          -0.002011580    0.001768694    0.007272246
     20        1           0.002302336    0.005386504   -0.004618900
 -------------------------------------------------------------------
 Cartesian Forces:  Max     0.223169674 RMS     0.046976368

 GradGradGradGradGradGradGradGradGradGradGradGradGradGradGradGradGradGrad
 Berny optimization.
 Using GEDIIS/GDIIS optimizer.
 FormGI is forming the generalized inverse of G from B-inverse, IUseBI=4.
 Internal  Forces:  Max     0.148233124 RMS     0.028276600
 Search for a local minimum.
 Step number   2 out of a maximum of   95
 All quantities printed in internal units (Hartrees-Bohrs-Radians)
 Mixed Optimization -- RFO/linear search
 Update second derivatives using D2CorX and points    1    2
 DE= -9.62D-02 DEPred=-8.58D-02 R= 1.12D+00
 TightC=F SS=  1.41D+00  RLast= 3.61D-01 DXNew= 5.0454D-01 1.0818D+00
 Trust test= 1.12D+00 RLast= 3.61D-01 DXMaxT set to 5.05D-01
 ITU=  1  0
 Use linear search instead of GDIIS.
 Linear search step of   0.589 exceeds DXMaxT=   0.505 but not scaled.
 Quartic linear search produced a step of  2.00000.
 Iteration  1 RMS(Cart)=  0.09066121 RMS(Int)=  0.02281325
 Iteration  2 RMS(Cart)=  0.02138209 RMS(Int)=  0.01024809
 Iteration  3 RMS(Cart)=  0.00042525 RMS(Int)=  0.01023968
 Iteration  4 RMS(Cart)=  0.00002223 RMS(Int)=  0.01023966
 Iteration  5 RMS(Cart)=  0.00000094 RMS(Int)=  0.01023966
 Variable       Old X    -DE/DX   Delta X   Delta X   Delta X     New X
                                 (Linear)    (Quad)   (Total)
    R1        2.27688  -0.04795  -0.09686   0.00000  -0.09686   2.18001
    R2        2.26658  -0.05494  -0.10756   0.00000  -0.10756   2.15901
    R3        2.62710  -0.03482  -0.10503   0.00000  -0.10503   2.52207
    R4        2.68475  -0.00215  -0.01117   0.00000  -0.01117   2.67358
    R5        2.88882  -0.00349  -0.01796   0.00000  -0.01796   2.87086
    R6        2.05925  -0.00816  -0.03154   0.00000  -0.03154   2.02771
    R7        2.06105  -0.00736  -0.02840   0.00000  -0.02840   2.03265
    R8        2.89007  -0.00683  -0.02807   0.00000  -0.02807   2.86200
    R9        2.69748   0.00118   0.00043   0.00000   0.00043   2.69791
   R10        2.06353  -0.00746  -0.02798   0.00000  -0.02798   2.03555
   R11        2.69464  -0.00275  -0.01036   0.00000  -0.01036   2.68429
   R12        2.05848  -0.00768  -0.03030   0.00000  -0.03030   2.02819
   R13        2.05740  -0.00744  -0.02827   0.00000  -0.02827   2.02913
   R14        2.62674  -0.03676  -0.10851   0.00000  -0.10851   2.51823
   R15        2.26615  -0.05516  -0.10764   0.00000  -0.10764   2.15852
   R16        2.27883  -0.04687  -0.09550   0.00000  -0.09550   2.18332
   R17        2.68904  -0.04063  -0.11480   0.00000  -0.11480   2.57424
   R18        2.54229  -0.13949  -0.27403   0.00000  -0.27403   2.26826
   R19        2.53269  -0.14823  -0.29127   0.00000  -0.29127   2.24142
    A1        2.26839  -0.00292  -0.01459   0.00000  -0.01459   2.25380
    A2        2.04868   0.00105   0.01287   0.00000   0.01287   2.06154
    A3        1.96610   0.00187   0.00174   0.00000   0.00174   1.96784
    A4        1.97946   0.00989   0.02714   0.00000   0.02714   2.00660
    A5        1.87560  -0.01136  -0.05611   0.00000  -0.05597   1.81963
    A6        1.93231   0.00303   0.01522   0.00000   0.01519   1.94749
    A7        1.93835   0.00154   0.00625   0.00000   0.00657   1.94492
    A8        1.90355   0.00282   0.01237   0.00000   0.01217   1.91573
    A9        1.92292   0.00494   0.02431   0.00000   0.02407   1.94699
   A10        1.89106  -0.00084  -0.00131   0.00000  -0.00184   1.88922
   A11        1.94374   0.00272   0.00699   0.00000   0.00713   1.95087
   A12        1.84624  -0.00593  -0.03104   0.00000  -0.03108   1.81516
   A13        1.90312   0.00110   0.00773   0.00000   0.00754   1.91066
   A14        1.91954   0.00334   0.02093   0.00000   0.02101   1.94055
   A15        1.91363  -0.00066  -0.00019   0.00000  -0.00029   1.91335
   A16        1.93688  -0.00070  -0.00523   0.00000  -0.00538   1.93150
   A17        1.86619  -0.00905  -0.04427   0.00000  -0.04418   1.82201
   A18        1.91472   0.00283   0.01085   0.00000   0.01086   1.92559
   A19        1.92443   0.00209   0.01018   0.00000   0.01021   1.93465
   A20        1.92148   0.00249   0.01282   0.00000   0.01280   1.93429
   A21        1.91147   0.00289   0.01455   0.00000   0.01454   1.92600
   A22        1.92473  -0.00140  -0.00491   0.00000  -0.00516   1.91957
   A23        1.98003   0.01027   0.03291   0.00000   0.03291   2.01294
   A24        1.96932   0.00228   0.00413   0.00000   0.00412   1.97344
   A25        2.04742   0.00114   0.01395   0.00000   0.01395   2.06137
   A26        2.26635  -0.00341  -0.01800   0.00000  -0.01801   2.24835
   A27        1.93131   0.02121   0.07535   0.00000   0.07535   2.00666
   A28        1.93322   0.02456   0.14604   0.00000   0.09765   2.03088
   A29        1.88296   0.00507   0.04690   0.00000  -0.01170   1.87125
   A30        2.00953   0.04828   0.24743   0.00000   0.20645   2.21599
    D1        3.13551   0.00044   0.00298   0.00000   0.00295   3.13846
    D2        0.01471  -0.00029  -0.00183   0.00000  -0.00185   0.01285
    D3       -3.13213   0.00007   0.00062   0.00000   0.00064  -3.13149
    D4        3.13223  -0.00052  -0.00277   0.00000  -0.00298   3.12925
    D5        1.05500   0.00124   0.00760   0.00000   0.00770   1.06270
    D6       -1.04663  -0.00075  -0.00493   0.00000  -0.00482  -1.05145
    D7        1.15355  -0.00048  -0.00272   0.00000  -0.00280   1.15074
    D8       -3.04457   0.00141   0.00747   0.00000   0.00732  -3.03725
    D9       -0.96048  -0.00213  -0.01202   0.00000  -0.01218  -0.97265
   D10       -3.03405  -0.00187  -0.01016   0.00000  -0.01023  -3.04429
   D11       -0.94899   0.00002   0.00003   0.00000  -0.00010  -0.94909
   D12        1.13511  -0.00352  -0.01946   0.00000  -0.01960   1.11550
   D13       -0.96049   0.00176   0.00985   0.00000   0.01015  -0.95035
   D14        1.12457   0.00366   0.02005   0.00000   0.02027   1.14484
   D15       -3.07452   0.00012   0.00056   0.00000   0.00077  -3.07375
   D16       -2.94691  -0.00205  -0.01213   0.00000  -0.01210  -2.95901
   D17        1.25290  -0.00131  -0.00769   0.00000  -0.00762   1.24528
   D18       -0.87019  -0.00277  -0.01515   0.00000  -0.01516  -0.88535
   D19        1.29533   0.00153   0.00884   0.00000   0.00884   1.30417
   D20       -0.78804   0.00227   0.01328   0.00000   0.01332  -0.77472
   D21       -2.91114   0.00081   0.00582   0.00000   0.00578  -2.90536
   D22       -0.83904   0.00066   0.00193   0.00000   0.00189  -0.83716
   D23       -2.92241   0.00139   0.00636   0.00000   0.00636  -2.91605
   D24        1.23768  -0.00007  -0.00110   0.00000  -0.00118   1.23650
   D25        2.56325  -0.00029   0.00139   0.00000   0.00169   2.56494
   D26       -1.61900   0.00128   0.00303   0.00000   0.00291  -1.61609
   D27        0.50154   0.00224   0.01337   0.00000   0.01320   0.51474
   D28       -3.12703   0.00011   0.00204   0.00000   0.00201  -3.12502
   D29       -1.04803  -0.00045  -0.00385   0.00000  -0.00400  -1.05203
   D30        1.07105   0.00127   0.00741   0.00000   0.00759   1.07864
   D31       -3.11381  -0.00048  -0.00310   0.00000  -0.00316  -3.11697
   D32        0.01461   0.00031   0.00196   0.00000   0.00203   0.01664
   D33        3.12635   0.00096   0.00627   0.00000   0.00621   3.13256
   D34       -1.90705   0.04544   0.22576   0.00000   0.21459  -1.69246
   D35        2.16217  -0.03645  -0.18118   0.00000  -0.17001   1.99216
   D36       -2.14211  -0.06279  -0.29886   0.00000  -0.33360  -2.47571
         Item               Value     Threshold  Converged?
 Maximum Force            0.148233     0.000450     NO 
 RMS     Force            0.028277     0.000300     NO 
 Maximum Displacement     0.333860     0.001800     NO 
 RMS     Displacement     0.101680     0.001200     NO 
 Predicted change in Energy=-1.356208D-01
 GradGradGradGradGradGradGradGradGradGradGradGradGradGradGradGradGradGrad

                          Input orientation:                          
 ---------------------------------------------------------------------
 Center     Atomic      Atomic             Coordinates (Angstroms)
 Number     Number       Type             X           Y           Z
 ---------------------------------------------------------------------
      1          8           0       -3.559264   -1.524356   -0.722713
      2          7           0       -3.024779   -1.662061    0.290297
      3          8           0       -3.325174   -2.310350    1.181808
      4          8           0       -1.888620   -0.993328    0.498032
      5          6           0       -1.479072   -0.164508   -0.572937
      6          6           0       -0.196075    0.480628   -0.077288
      7          6           0        0.909371   -0.537732    0.108895
      8          8           0        1.929964    0.170878    0.797355
      9          7           0        3.033051   -0.529391    1.059293
     10          8           0        3.816908    0.069158    1.635499
     11          8           0        3.079539   -1.626441    0.699865
     12          8           0        0.135165    1.420622   -1.099511
     13          7           0        0.749682    2.554508   -0.660954
     14          8           0        0.044594    3.510681   -0.489685
     15          8           0        1.850763    2.550056   -1.101923
     16          1           0       -2.207661    0.593839   -0.786100
     17          1           0       -1.313835   -0.734416   -1.470090
     18          1           0       -0.384752    0.984507    0.855877
     19          1           0        1.261540   -0.884146   -0.843933
     20          1           0        0.568651   -1.368149    0.698213
 ---------------------------------------------------------------------
                    Distance matrix (angstroms):
                    1          2          3          4          5
     1  O    0.000000
     2  N    1.153614   0.000000
     3  O    2.073592   1.142501   0.000000
     4  O    2.136179   1.334622   2.065378   0.000000
     5  C    2.489742   2.318846   3.330444   1.414795   0.000000
     6  C    3.968321   3.567604   4.377915   2.316947   1.519194
     7  C    4.651204   4.095676   4.714307   2.861424   2.511743
     8  O    5.942731   5.307189   5.824154   4.003318   3.689405
     9  N    6.901023   6.210604   6.604078   4.975249   4.812128
    10  O    7.906223   7.184384   7.541700   5.914031   5.742752
    11  O    6.790276   6.118146   6.459129   5.012401   4.953605
    12  O    4.739586   4.628147   5.576604   3.531997   2.322860
    13  N    5.933630   5.738544   6.608106   4.570670   3.516837
    14  O    6.196264   6.065202   6.930630   4.999900   3.979385
    15  O    6.783290   6.591745   7.458505   5.394294   4.328566
    16  H    2.513483   2.629714   3.681822   2.066369   1.073020
    17  H    2.494901   2.624274   3.682610   2.066620   1.075630
    18  H    4.343255   3.780733   4.428137   2.510279   2.135248
    19  H    4.864639   4.501573   5.213025   3.425828   2.846449
    20  H    4.368422   3.628432   4.035279   2.493741   2.694020
                    6          7          8          9         10
     6  C    0.000000
     7  C    1.514508   0.000000
     8  O    2.319696   1.420463   0.000000
     9  N    3.569204   2.326659   1.332587   0.000000
    10  O    4.382578   3.339552   2.067218   1.142238   0.000000
    11  O    3.971568   2.498832   2.135739   1.155365   2.072241
    12  O    1.427672   2.427919   2.895041   4.106182   4.781419
    13  N    2.352892   3.190630   3.033385   4.205171   4.567115
    14  O    3.067444   4.182796   4.045415   5.258555   5.530899
    15  O    3.085766   3.447714   3.045327   3.943559   4.184981
    16  H    2.135815   3.434728   4.450412   5.668526   6.514205
    17  H    2.160004   2.733958   4.059938   5.033412   6.051028
    18  H    1.077167   2.133060   2.454247   3.743613   4.370311
    19  H    2.138924   1.073270   2.062448   2.624190   3.685957
    20  H    2.145737   1.073768   2.057087   2.628148   3.673627
                   11         12         13         14         15
    11  O    0.000000
    12  O    4.603442   0.000000
    13  N    4.975982   1.362227   0.000000
    14  O    6.084073   2.179091   1.200312   0.000000
    15  O    4.711630   2.053997   1.186108   2.135388   0.000000
    16  H    5.923868   2.504123   3.550460   3.697091   4.516340
    17  H    4.980577   2.623188   3.966085   4.563701   4.575804
    18  H    4.340817   2.069795   2.460208   2.894207   3.358787
    19  H    2.497886   2.577982   3.481354   4.573943   3.493921
    20  H    2.524138   3.346186   4.155400   5.048636   4.498514
                   16         17         18         19         20
    16  H    0.000000
    17  H    1.740985   0.000000
    18  H    2.484292   3.037764   0.000000
    19  H    3.771358   2.654628   3.015210   0.000000
    20  H    3.709514   2.940563   2.543388   1.758570   0.000000
 Stoichiometry    C3H5N3O9
 Framework group  C1[X(C3H5N3O9)]
 Deg. of freedom    54
 Full point group                 C1      NOp   1
 Largest Abelian subgroup         C1      NOp   1
 Largest concise Abelian subgroup C1      NOp   1
                         Standard orientation:                         
 ---------------------------------------------------------------------
 Center     Atomic      Atomic             Coordinates (Angstroms)
 Number     Number       Type             X           Y           Z
 ---------------------------------------------------------------------
      1          8           0        4.054541    0.240663    0.625665
      2          7           0        3.577911   -0.488306   -0.130808
      3          8           0        4.072762   -1.313011   -0.747487
      4          8           0        2.264400   -0.398076   -0.349357
      5          6           0        1.605693    0.618250    0.381967
      6          6           0        0.155358    0.516036   -0.058520
      7          6           0       -0.474544   -0.789396    0.380578
      8          8           0       -1.715053   -0.832773   -0.310052
      9          7           0       -2.469016   -1.903028   -0.061287
     10          8           0       -3.444619   -1.911106   -0.655291
     11          8           0       -2.072794   -2.684964    0.691342
     12          8           0       -0.476186    1.631054    0.570873
     13          7           0       -1.498387    2.187895   -0.136726
     14          8           0       -1.226408    3.153542   -0.795741
     15          8           0       -2.494197    2.003047    0.480564
     16          1           0        1.990420    1.590497    0.140944
     17          1           0        1.708132    0.468906    1.442242
     18          1           0        0.098776    0.602444   -1.130724
     19          1           0       -0.628881   -0.790229    1.442692
     20          1           0        0.139388   -1.623901    0.098325
 ---------------------------------------------------------------------
 Rotational constants (GHZ):           0.7364859           0.3504316           0.2520916
 Standard basis: 6-31G(d) (6D, 7F)
 There are   235 symmetry adapted cartesian basis functions of A   symmetry.
 There are   235 symmetry adapted basis functions of A   symmetry.
   235 basis functions,   440 primitive gaussians,   235 cartesian basis functions
    58 alpha electrons       58 beta electrons
       nuclear repulsion energy      1098.3910809766 Hartrees.
 NAtoms=   20 NActive=   20 NUniq=   20 SFac= 1.00D+00 NAtFMM=   60 NAOKFM=F Big=F
 Integral buffers will be    131072 words long.
 Raffenetti 1 integral format.
 Two-electron integral symmetry is turned on.
 One-electron integrals computed using PRISM.
 NBasis=   235 RedAO= T EigKep=  2.08D-03  NBF=   235
 NBsUse=   235 1.00D-06 EigRej= -1.00D+00 NBFU=   235
 Initial guess from the checkpoint file:  "C:\g16w\Scratch\Gau-15880.chk"
 B after Tr=     0.000000    0.000000    0.000000
         Rot=    0.999994    0.001679   -0.001319    0.002595 Ang=   0.39 deg.
 ExpMin= 1.61D-01 ExpMax= 5.48D+03 ExpMxC= 8.25D+02 IAcc=3 IRadAn=         5 AccDes= 0.00D+00
 Harris functional with IExCor=  205 and IRadAn=       5 diagonalized for initial guess.
 HarFok:  IExCor=  205 AccDes= 0.00D+00 IRadAn=         5 IDoV= 1 UseB2=F ITyADJ=14
 ICtDFT=  3500011 ScaDFX=  1.000000  1.000000  1.000000  1.000000
 FoFCou: FMM=F IPFlag=           0 FMFlag=      100000 FMFlg1=           0
         NFxFlg=           0 DoJE=T BraDBF=F KetDBF=T FulRan=T
         wScrn=  0.000000 ICntrl=       500 IOpCl=  0 I1Cent=   200000004 NGrid=           0
         NMat0=    1 NMatS0=      1 NMatT0=    0 NMatD0=    1 NMtDS0=    0 NMtDT0=    0
 Petite list used in FoFCou.
 Requested convergence on RMS density matrix=1.00D-08 within 128 cycles.
 Requested convergence on MAX density matrix=1.00D-06.
 Requested convergence on             energy=1.00D-06.
 No special actions if energy rises.
 Integral accuracy reduced to 1.0D-05 until final iterations.
 Initial convergence to 1.0D-05 achieved.  Increase integral accuracy.
 SCF Done:  E(RHF) =  -953.053022313     A.U. after   17 cycles
            NFock= 17  Conv=0.92D-08     -V/T= 2.0015
 Calling FoFJK, ICntrl=      2127 FMM=F ISym2X=0 I1Cent= 0 IOpClX= 0 NMat=1 NMatS=1 NMatT=0.
 ***** Axes restored to original set *****
 -------------------------------------------------------------------
 Center     Atomic                   Forces (Hartrees/Bohr)
 Number     Number              X              Y              Z
 -------------------------------------------------------------------
      1        8          -0.027421607    0.010987755   -0.059260612
      2        7           0.033755180    0.019146632    0.006672078
      3        8          -0.020763760   -0.042963380    0.058164062
      4        8           0.006515265    0.006815226   -0.004625031
      5        6           0.006202107    0.006637337   -0.001543553
      6        6          -0.006148749   -0.005200895   -0.002734893
      7        6          -0.002327113    0.007566366   -0.001875034
      8        8          -0.011322407   -0.000809785   -0.004432203
      9        7          -0.033110637    0.019869954   -0.008028507
     10        8           0.051754116    0.039434422    0.037421469
     11        8          -0.002149626   -0.061519708   -0.022816918
     12        8          -0.022285527   -0.018641661    0.039104865
     13        7          -0.000248954    0.036149660   -0.124591956
     14        8           0.012433207   -0.030612036    0.040566500
     15        8           0.016973517    0.013739135    0.046702950
     16        1          -0.004015909    0.002363965    0.002011378
     17        1           0.000878709   -0.004165331   -0.001435327
     18        1          -0.001357431    0.004417254    0.001076740
     19        1           0.003189915   -0.001217591   -0.003264252
     20        1          -0.000550295   -0.001997317    0.002888243
 -------------------------------------------------------------------
 Cartesian Forces:  Max     0.124591956 RMS     0.028366297

 GradGradGradGradGradGradGradGradGradGradGradGradGradGradGradGradGradGrad
 Berny optimization.
 Using GEDIIS/GDIIS optimizer.
 FormGI is forming the generalized inverse of G from B-inverse, IUseBI=4.
 Internal  Forces:  Max     0.075224394 RMS     0.018441296
 Search for a local minimum.
 Step number   3 out of a maximum of   95
 All quantities printed in internal units (Hartrees-Bohrs-Radians)
 Mixed Optimization -- RFO/linear search
 Update second derivatives using D2CorX and points    2    3
 ITU=  0  1  0
 Use linear search instead of GDIIS.
     Eigenvalues ---    0.00279   0.00323   0.00588   0.01047   0.01057
     Eigenvalues ---    0.01312   0.01330   0.01379   0.02546   0.02866
     Eigenvalues ---    0.02870   0.04313   0.05025   0.05636   0.05694
     Eigenvalues ---    0.05765   0.05869   0.07319   0.10738   0.10783
     Eigenvalues ---    0.13317   0.13340   0.16190   0.19454   0.21935
     Eigenvalues ---    0.22012   0.23253   0.24476   0.25000   0.25000
     Eigenvalues ---    0.25000   0.25000   0.25000   0.25000   0.25488
     Eigenvalues ---    0.28819   0.29122   0.33755   0.33887   0.33905
     Eigenvalues ---    0.33990   0.34108   0.38132   0.41172   0.41363
     Eigenvalues ---    0.41416   0.41964   0.42687   0.42838   0.45704
     Eigenvalues ---    0.90713   0.91252   0.92019   1.02695
 RFO step:  Lambda=-8.00060252D-02 EMin= 2.79319681D-03
 Quartic linear search produced a step of  0.00442.
 Iteration  1 RMS(Cart)=  0.04602849 RMS(Int)=  0.04173584
 Iteration  2 RMS(Cart)=  0.02919034 RMS(Int)=  0.01342950
 Iteration  3 RMS(Cart)=  0.00918546 RMS(Int)=  0.00867528
 Iteration  4 RMS(Cart)=  0.00033798 RMS(Int)=  0.00866722
 Iteration  5 RMS(Cart)=  0.00000730 RMS(Int)=  0.00866722
 Iteration  6 RMS(Cart)=  0.00000019 RMS(Int)=  0.00866722
 Variable       Old X    -DE/DX   Delta X   Delta X   Delta X     New X
                                 (Linear)    (Quad)   (Total)
    R1        2.18001   0.06605  -0.00043   0.06262   0.06220   2.24221
    R2        2.15901   0.07522  -0.00048   0.07022   0.06974   2.22876
    R3        2.52207   0.01784  -0.00046   0.03208   0.03162   2.55369
    R4        2.67358   0.00653  -0.00005   0.01226   0.01221   2.68578
    R5        2.87086   0.00460  -0.00008   0.01164   0.01156   2.88242
    R6        2.02771   0.00400  -0.00014   0.00904   0.00890   2.03661
    R7        2.03265   0.00354  -0.00013   0.00801   0.00788   2.04053
    R8        2.86200   0.00310  -0.00012   0.00774   0.00761   2.86962
    R9        2.69791   0.00074   0.00000   0.00177   0.00177   2.69968
   R10        2.03555   0.00324  -0.00012   0.00727   0.00714   2.04270
   R11        2.68429   0.00325  -0.00005   0.00617   0.00612   2.69041
[...]
 -0.00060045,-0.00004845,0.00115792,-0.00025214,0.00339109,-0.00821470,
 0.00192840,0.02638360,0.01561442,0.01691819,-0.03819660,-0.16668417,-0
 .04377573,-0.02522001,0.42615983,-0.00043161,-0.00032598,0.00029401,0.
 00170322,0.00118020,-0.00082715,-0.00066427,-0.00066356,0.00068277,-0.
 00119354,-0.00077543,0.00052927,0.00018959,0.00260720,-0.00105881,-0.0
 1217077,-0.00386554,-0.00655715,-0.04222948,-0.06131637,-0.11151603,0.
 19465526,0.08196436,0.19798025,0.00204901,0.00089106,0.00058115,-0.006
 44059,-0.00369581,0.00047384,0.00201817,0.00158048,-0.00116041,0.00441
 726,0.00151562,-0.00015694,-0.00170715,-0.00162031,0.00113194,-0.00442
 829,0.00117516,-0.00402604,-0.06018470,0.01569281,-0.02274806,-0.18555
 592,0.01809815,-0.04286439,0.87833769,-0.00070315,-0.00075738,0.000187
 95,0.00239177,0.00251753,-0.00097004,-0.00087060,-0.00126874,0.0009221
 6,-0.00168514,-0.00139657,0.00009436,-0.00061733,0.00446949,-0.0011716
 4,-0.00733598,-0.00601903,-0.00538484,0.01280153,0.04052124,0.01986011
 ,0.04253493,-0.21506525,-0.01525217,0.16526484,1.11309968,0.00068590,0
 .00031077,-0.00005521,-0.00236785,-0.00131673,0.00064312,0.00078197,0.
 00060433,-0.00063413,0.00166749,0.00047340,-0.00027383,-0.00139506,0.0
 0026189,0.00104136,-0.00293424,-0.00113701,-0.00427631,-0.02298192,0.0
 2022891,-0.01119566,-0.03564137,-0.02677240,-0.11223799,0.30274544,0.2
 8952974,0.56173240,-0.00091648,-0.00042015,-0.00016936,0.00287069,0.00
 158823,-0.00034167,-0.00092763,-0.00069141,0.00057552,-0.00181660,-0.0
 0062002,0.00011880,0.00027738,0.00245469,-0.00061858,-0.00223333,-0.00
 548358,-0.00060469,0.00630432,0.01328621,0.00386139,-0.10518811,-0.009
 62570,-0.06569765,-0.47405613,-0.18349418,-0.21755208,0.56444374,-0.00
 006857,0.00008085,-0.00008727,0.00017017,-0.00020791,0.00013279,-0.000
 02801,0.00013480,-0.00007111,-0.00007520,0.00020135,0.00000859,0.00016
 454,-0.00054776,0.00007679,0.00108975,0.00026910,0.00112253,-0.0009648
 8,-0.00502472,-0.00372902,0.02730573,0.04006551,0.01680567,-0.21256808
 ,-0.28951559,-0.14682967,0.26374183,0.34053805,-0.00044718,-0.00021156
 ,-0.00001529,0.00146813,0.00079815,-0.00031036,-0.00048606,-0.00035190
 ,0.00035478,-0.00094710,-0.00026743,0.00010834,0.00027113,0.00107326,-
 0.00038699,-0.00089841,-0.00255514,0.00015388,-0.00030498,0.00327990,0
 .00728516,-0.05551589,-0.00093339,0.00006374,-0.22525427,-0.13283263,-
 0.26670090,0.31850596,0.20543603,0.25509618,-0.00056203,-0.00024154,-0
 .00016820,0.00174965,0.00096600,-0.00008438,-0.00055311,-0.00041815,0.
 00030045,-0.00116490,-0.00042010,0.00003657,0.00075278,0.00047988,-0.0
 0022298,0.00186403,0.00029931,0.00189884,-0.00055947,0.00622462,0.0027
 4537,0.00088774,0.06762447,0.00261472,-0.16715062,-0.01431485,-0.02520
 658,0.01448292,-0.08024243,-0.03553760,0.15446561,0.00028725,0.0003768
 8,-0.00014791,-0.00100713,-0.00126229,0.00053616,0.00039415,0.00066422
 ,-0.00047511,0.00078521,0.00079234,-0.00009102,-0.00031945,-0.00163127
 ,0.00069928,0.00150328,0.00094501,0.00078663,-0.01522910,-0.01171152,-
 0.00996444,0.05949725,-0.07652221,-0.00158958,0.01242016,-0.63959974,-
 0.13409721,-0.08139005,-0.08814732,-0.07442812,0.01650847,0.81149773,-
 0.00012309,-0.00006346,0.00011114,0.00051498,0.00029522,-0.00031020,-0
 .00018910,-0.00016339,0.00021477,-0.00038029,-0.00010816,0.00013338,0.
 00044452,-0.00008380,-0.00019649,0.00033491,0.00062137,0.00239137,-0.0
 0270094,0.00055015,-0.00523395,0.00047624,0.00206674,0.03475435,-0.018
 11026,-0.14677233,-0.17068438,-0.03575508,-0.07388220,0.00610011,0.056
 63930,0.21502081,0.13133394,-0.00100038,0.00002337,-0.00117075,0.00491
 294,0.00052942,0.00304658,-0.00240707,-0.00161944,0.00086106,-0.011706
 84,-0.00658975,-0.00366140,-0.01061945,-0.02275962,0.03156120,-0.12095
 453,-0.01094154,0.06845248,0.01091389,0.01525197,-0.01690702,0.0005762
 5,0.00206218,-0.00208407,0.00281067,-0.00059052,0.00085468,-0.00037331
 ,0.00001446,-0.00024378,-0.00086679,0.00072250,0.00007744,0.25238365,-
 0.00283475,-0.00060520,-0.00165807,0.00905990,0.00321076,0.00335786,-0
 .00379451,-0.00268884,0.00148621,-0.01482671,-0.00511109,-0.00334949,-
 0.00407941,-0.01625450,0.02580463,-0.03312126,-0.11943698,0.04269145,-
 0.02216297,-0.03879922,0.03741305,0.00314620,0.00041770,0.00075148,-0.
 00746275,-0.00034376,-0.00363041,0.00351095,0.00111622,0.00194313,0.00
 249963,0.00053858,0.00082375,-0.02840881,0.52766191,0.00110660,0.00023
 754,0.00057314,-0.00243193,-0.00088461,-0.00016451,0.00056858,0.000353
 10,-0.00014047,0.00086233,-0.00029611,0.00215544,0.00247396,0.00314312
 ,0.00040623,0.07794847,0.01753592,-0.16418812,0.00234274,0.01106409,-0
 .00914218,-0.00091699,0.00156984,-0.00077466,0.00285057,-0.00066081,0.
 00105254,-0.00090107,-0.00013920,-0.00040955,-0.00082535,0.00041398,-0
 .00009282,-0.18070564,-0.11351616,0.31951686,-0.00027273,0.00074651,-0
 .00053542,-0.00046808,-0.00210863,0.00157717,-0.00009015,0.00033137,-0
 .00039653,-0.00352976,0.00182238,-0.00168403,0.00430204,-0.00830242,0.
 00755570,0.01194240,-0.00891314,-0.03186776,0.00032667,-0.00112782,0.0
 0472818,-0.00038874,-0.00052585,0.00078025,-0.00004438,0.00137375,-0.0
 0041688,-0.00046731,-0.00049188,0.00011479,-0.00008041,-0.00076479,-0.
 00012535,-0.14169198,0.03366451,0.05547131,0.82007402,0.00363368,0.001
 09812,0.00112938,-0.01087487,-0.00457536,-0.00097859,0.00411666,0.0030
 1311,-0.00211218,0.01191029,0.00622820,-0.00017568,-0.00966094,-0.0022
 4235,-0.00453324,-0.01006748,-0.05599596,0.03793762,0.00434720,0.00068
 990,-0.00068464,-0.00691610,0.00302181,-0.00332095,0.01229512,-0.00218
 724,0.00500253,-0.00539262,-0.00110828,-0.00274545,-0.00329134,0.00117
 239,-0.00112636,0.02710547,-0.20072970,0.00956695,0.02499933,0.8124334
 4,-0.00090546,-0.00065619,-0.00054172,0.00327957,0.00253211,0.00042870
 ,-0.00092598,-0.00088390,0.00034431,-0.00138616,-0.00255618,-0.0000106
 9,-0.00041820,0.00152717,-0.00154108,-0.02835354,0.03276533,0.01507982
 ,0.00437214,0.00652191,-0.00997890,0.00281634,-0.00113859,0.00063195,-
 0.00336306,0.00136855,-0.00036414,0.00132838,0.00000132,0.00021284,0.0
 0076431,-0.00106361,0.00000269,0.06091857,-0.00674450,-0.14867268,-0.5
 0031124,-0.17187595,0.90046326,0.00017630,-0.00049269,0.00026847,0.000
 45839,0.00148918,-0.00074723,-0.00007719,-0.00033222,0.00030756,0.0013
 6505,-0.00153058,0.00076509,-0.00379516,0.00251703,-0.00300969,-0.0072
 2267,-0.00663505,0.01157035,0.00037400,0.00083481,-0.00150926,0.000239
 56,0.00025435,-0.00041879,0.00054224,-0.00056306,0.00056240,-0.0000540
 6,0.00010914,-0.00020295,-0.00009856,0.00026227,-0.00007972,-0.0078101
 9,0.06000164,0.02345395,-0.40168251,0.12598207,0.24439875,0.46818546,-
 0.00101993,-0.00027821,-0.00028376,0.00306851,0.00127819,0.00005480,-0
 .00108056,-0.00076130,0.00059747,-0.00282957,-0.00160064,0.00042033,0.
 00116473,0.00068768,0.00017028,0.00817643,0.00271559,-0.00685988,-0.00
 158288,-0.00107712,-0.00268658,0.00167472,-0.00059613,0.00101096,-0.00
 334510,0.00050319,-0.00157413,0.00150509,0.00034079,0.00084453,0.00092
 812,-0.00020363,0.00044140,0.06464238,-0.04948779,-0.03960799,0.108138
 15,-0.21875371,-0.07880879,-0.15584461,0.22382228,0.00016620,0.0001851
 5,0.00019484,-0.00054794,-0.00071545,-0.00015538,0.00002640,0.00010763
 ,0.00008835,-0.00060793,0.00020906,0.00015420,0.00019333,-0.00080099,0
 .00147513,0.00349913,0.00638156,-0.01207219,-0.00060950,-0.00059409,0.
 00370314,-0.00056570,0.00000348,0.00023958,0.00050945,-0.00016268,-0.0
 0025657,-0.00025373,0.00001811,0.00011025,-0.00018597,0.00023205,0.000
 03184,0.02245091,-0.03363104,0.01898571,0.25292264,-0.09838490,-0.3467
 8792,-0.37936281,0.10180774,0.40037746,-0.00027487,-0.00032480,-0.0000
 0923,0.00112999,0.00111196,-0.00023152,-0.00033717,-0.00039080,0.00025
 899,-0.00019747,-0.00082208,0.00021056,0.00019381,0.00147861,-0.001329
 80,0.00330508,0.00138140,0.00399417,-0.00174839,-0.00051118,-0.0002283
 6,0.00111155,-0.00006310,0.00004940,-0.00158348,-0.00035006,-0.0003872
 0,0.00086146,0.00034364,0.00027276,0.00047159,0.00014495,0.00015728,0.
 02990758,-0.00661899,-0.00231062,-0.28466784,-0.16960760,0.21610991,-0
 .05362794,-0.02585101,0.10504792,0.30456791,-0.00130314,-0.00049931,-0
 .00048996,0.00400077,0.00201504,0.00041121,-0.00145220,-0.00112176,0.0
 0071503,-0.00397448,-0.00222715,-0.00022390,0.00306387,0.00025107,0.00
 188682,0.01149024,0.00215185,-0.01439668,-0.00547124,-0.00263910,0.002
 30201,0.00277641,-0.00066643,0.00087124,-0.00456908,0.00040087,-0.0017
 3653,0.00216122,0.00052867,0.00102397,0.00133171,-0.00018496,0.0004536
 0,-0.03632829,-0.10615846,0.07830039,-0.14701013,-0.34796936,0.2174004
 9,-0.02602165,0.05314560,0.02312988,0.20016696,0.40426457,0.00080213,0
 .00043928,0.00042975,-0.00273489,-0.00169591,-0.00046019,0.00091028,0.
 00075710,-0.00037689,0.00217362,0.00193271,0.00024474,-0.00097673,-0.0
 0059181,-0.00100906,0.00109279,-0.00058390,0.00568525,0.00204514,0.000
 34865,0.00062553,-0.00182710,0.00047190,-0.00037769,0.00260256,-0.0005
 1172,0.00065591,-0.00119889,-0.00019844,-0.00043656,-0.00075599,0.0003
 2085,-0.00014351,0.00622404,0.04678997,0.00638640,0.20822372,0.2404112
 8,-0.40813801,0.10594952,0.02325404,-0.06974274,-0.32093143,-0.3108917
 9,0.46649578,-0.00230037,-0.00221630,-0.00022190,0.00498745,0.00040264
 ,0.00029661,-0.00125145,0.00003886,0.00086827,0.01161301,-0.02262616,0
 .00932740,-0.19007449,0.15370101,-0.04057689,-0.01992119,0.02658346,-0
 .00654504,-0.00174398,-0.00509484,-0.00156562,-0.00242110,0.00174957,-
 0.00070327,0.00090756,-0.00099251,0.00011943,-0.00079430,0.00003638,-0
 .00035837,-0.00024311,0.00030463,-0.00003581,0.00294522,-0.00054811,0.
 00101241,-0.00425477,-0.00009278,0.00264020,0.00256959,-0.00000225,-0.
 00089347,0.00075409,0.00008693,-0.00106523,0.19827424,-0.00177144,0.00
 137831,-0.00310005,0.00707114,-0.00034453,0.00533467,-0.00119276,0.000
 26976,-0.00116976,0.00245081,-0.01978966,0.01459277,0.14690398,-0.2359
 0352,0.04285022,-0.01072769,0.01518946,-0.00397522,-0.00193516,-0.0025
 1623,-0.00088633,-0.00140188,0.00107640,-0.00031297,0.00030688,-0.0005
 3586,-0.00000826,-0.00041228,0.00004468,-0.00018693,-0.00011669,0.0002
 0499,-0.00000280,0.00168484,0.00055093,-0.00008779,-0.00197524,0.00063
 811,0.00124769,-0.00040624,-0.00244084,-0.00099073,0.00046982,0.000087
 76,-0.00055217,-0.15355692,0.25376014,0.00130175,-0.00043007,0.0012680
 6,-0.00493539,-0.00116288,-0.00065519,0.00116428,-0.00007417,-0.000207
 94,-0.01247194,0.03318345,-0.01630511,-0.03286564,0.03735123,-0.074491
 53,-0.01051163,0.01157874,-0.00247140,-0.00095147,-0.00179609,-0.00062
 185,-0.00047549,0.00047932,0.00016624,-0.00004640,-0.00009128,-0.00006
 524,-0.00009383,0.00000797,-0.00005145,-0.00001556,0.00002978,0.000030
 69,0.00148089,-0.00075263,0.00034888,-0.00129666,0.00022701,0.00223815
 ,0.00111619,-0.00011060,-0.00079620,0.00052640,0.00035318,-0.00095297,
 0.03908306,-0.05654727,0.08221785,-0.00207533,-0.00023950,-0.00209145,
 0.00531479,0.00297843,0.00534602,-0.00093146,-0.00094320,-0.00068964,-
 0.00716253,0.00145374,0.01923163,-0.07114307,0.02766044,0.03028611,0.0
 0742751,-0.02062032,-0.02988717,0.00151424,-0.00085499,-0.00073837,0.0
 0025003,0.00009320,0.00046506,-0.00001018,-0.00004205,0.00004338,0.000
 11934,0.00005027,0.00005082,-0.00002781,0.00019777,0.00006250,0.001511
 33,0.00185782,0.00071375,-0.00005524,0.00033549,0.00015024,0.00048886,
 0.00019759,0.00034667,-0.00004753,-0.00009323,-0.00012016,-0.00062180,
 0.01383018,0.01869851,0.07224214,-0.00223011,-0.00068820,0.00050198,0.
 00288306,0.00343159,0.00018746,-0.00029490,-0.00162430,0.00036276,-0.0
 1015679,0.01394607,0.03095447,0.03100874,-0.17375101,-0.14741762,0.002
 80968,-0.00506510,-0.00962551,0.00059444,-0.00005715,0.00060088,-0.000
 06882,0.00010014,0.00018480,0.00021827,-0.00003273,0.00011581,-0.00010
 403,-0.00001071,-0.00005850,-0.00011050,0.00008071,-0.00003721,0.00054
 394,0.00077859,0.00071510,0.00163772,-0.00044989,-0.00165680,-0.001307
 97,-0.00019894,0.00069813,-0.00047011,-0.00028912,0.00069764,0.0024320
 3,-0.01224141,-0.02290856,-0.02453543,0.17535106,0.00047142,0.00003371
 ,0.00353271,-0.00563434,-0.00247722,-0.00459430,0.00100973,0.00056349,
 0.00103684,0.01243913,-0.00296162,-0.03152656,0.03426905,-0.13843839,-
 0.24851326,0.00172125,-0.00721093,-0.00895589,0.00026153,-0.00058507,-
 0.00029086,0.00045855,0.00011623,0.00055455,-0.00044179,0.00010986,-0.
 00018849,0.00022694,0.00004660,0.00011150,0.00007802,0.00003825,0.0000
 7125,-0.00046812,0.00007601,0.00148338,-0.00024337,-0.00005860,0.00020
 329,0.00016827,0.00028087,-0.00002702,0.00003759,-0.00001562,-0.000010
 66,-0.00187462,0.00347817,0.00996423,-0.04046725,0.14664368,0.27692559
 ,-0.00033971,-0.00025900,0.00097930,-0.00042037,0.00049325,-0.00134563
 ,-0.00000029,-0.00019907,0.00037775,0.00194990,0.00147249,0.00028701,0
 .00779595,-0.02044980,-0.03077725,-0.07186687,0.02162922,0.03698082,-0
 .00395027,0.01379804,0.02218635,0.00183123,-0.00060124,0.00126770,-0.0
 0047565,0.00145883,0.00005285,0.00021683,-0.00030160,0.00001131,-0.000
 27969,-0.00083656,-0.00053638,-0.00557004,0.00410364,0.02065277,0.0007
 7917,0.00289846,0.00016955,0.00005648,0.00128560,-0.00183887,-0.000310
 45,-0.00060889,0.00024065,0.00132692,0.00088169,0.00045218,-0.00612391
 ,-0.00222416,-0.00143738,0.07756056,0.00019971,-0.00009303,0.00057634,
 -0.00076740,-0.00002056,-0.00039186,0.00010307,-0.00002638,0.00012995,
 0.00063245,0.00041079,-0.00012411,0.00257154,-0.00467914,-0.01002188,0
 .02644985,-0.15092793,-0.14680127,0.00526461,-0.01284685,-0.02428094,-
 0.00233979,0.00184851,0.00011768,0.00038988,-0.00131972,0.00004632,-0.
 00010907,0.00022424,-0.00004452,0.00016252,0.00080233,0.00046759,-0.00
 833943,0.00762202,0.03363285,-0.00165970,0.00548717,0.00136434,0.00208
 401,-0.00699145,0.00190638,0.00019077,-0.00056103,-0.00069725,-0.00010
 573,0.00051650,0.00051133,-0.00185008,0.00012550,-0.00001117,-0.025185
 91,0.16250450,0.00031588,-0.00000528,0.00031881,-0.00100092,-0.0002445
 0,0.00000483,0.00011178,0.00002320,-0.00002765,0.00075554,0.00061463,0
 .00094861,0.00071586,-0.00815725,-0.00929202,0.03794916,-0.13339325,-0
 .27816640,-0.00191958,0.00356163,0.01095577,-0.00019876,0.00022090,0.0
 0033992,0.00081459,0.00038753,0.00079544,-0.00027514,-0.00017533,-0.00
 022239,-0.00042593,0.00011864,-0.00041078,0.01002778,0.00037542,-0.029
 12951,0.00575293,-0.00662283,-0.00424073,-0.00281033,-0.00002806,0.004
 49287,-0.00140053,0.00047527,0.00146289,0.00039030,0.00033904,0.000360
 76,-0.00155354,0.00005031,0.00012564,-0.04563741,0.14165212,0.30152155
 ,-0.00020172,-0.00009685,-0.00023856,0.00029407,0.00035767,0.00021652,
 -0.00009427,-0.00008261,-0.00001683,-0.00024034,-0.00034938,-0.0003613
 0,0.00130063,0.00041912,0.00163306,-0.00742216,0.00909847,0.02444314,-
 0.10176783,0.04291903,0.10184125,-0.00050961,-0.01803698,-0.03973554,0
 .00655140,-0.00496177,-0.00087630,-0.00199747,0.00016965,0.00040168,-0
 .00249140,0.00268961,-0.00095391,0.00089223,-0.00216672,-0.00031051,-0
 .00075015,0.00022592,0.00091837,0.00049589,0.00028038,-0.00089288,0.00
 021990,0.00005535,-0.00024755,0.00004506,-0.00014276,-0.00032003,-0.00
 057367,-0.00036158,-0.00060019,-0.00261876,0.00297635,-0.00231868,0.11
 059084,-0.00012366,-0.00002375,-0.00019414,0.00031724,0.00028165,0.000
 17906,-0.00008265,-0.00007183,-0.00001891,-0.00066835,-0.00020803,0.00
 007826,-0.00095566,-0.00011812,0.00003951,0.01041153,-0.01055067,-0.02
 387497,0.03595880,-0.10240352,-0.09048805,-0.00167199,-0.00907840,-0.0
 1991770,0.00191929,-0.00096452,0.00039042,-0.00042536,0.00025949,0.000
 09544,0.00060776,0.00055029,0.00139393,-0.00041504,0.00248087,-0.00140
 020,0.00089379,-0.00122750,-0.00091738,-0.00074842,0.00006618,0.001017
 77,-0.00018584,0.00035087,0.00015731,-0.00000495,0.00013314,0.00020462
 ,0.00029089,0.00050293,0.00037844,0.00298106,-0.00255076,0.00148353,-0
 .03941441,0.10872551,0.00002671,0.00000850,0.00011725,0.00008025,-0.00
 003402,-0.00009157,-0.00005350,-0.00006088,0.00008619,0.00011058,-0.00
 014774,0.00010545,0.00092579,-0.00006589,0.00034877,-0.00266997,0.0044
 9443,0.00919660,0.09278393,-0.09303190,-0.28931667,-0.00859785,-0.0101
 4416,-0.01679229,0.00374406,-0.00785345,-0.00148797,-0.00050281,0.0016
 1848,0.00034267,0.00035706,0.00338514,0.00221798,-0.00012960,0.0000037
 3,0.00107906,-0.00038414,-0.00045532,0.00064775,-0.00004405,0.00062373
 ,-0.00026225,0.00011660,0.00004434,-0.00017713,0.00011324,0.00008994,0
 .00010481,0.00016499,0.00003011,0.00022436,-0.00143125,0.00185682,-0.0
 0013983,-0.09277105,0.10778914,0.30833771,0.00034712,0.00000155,0.0004
 0956,-0.00124118,-0.00018285,-0.00030023,0.00016593,-0.00005839,0.0000
 9762,-0.00264054,0.00025255,-0.00029396,0.00151722,-0.00013171,-0.0006
 4794,0.01502597,0.01388128,-0.01449033,-0.10316404,-0.07452783,0.06681
 037,-0.02588162,-0.02730482,0.00646819,0.00400310,-0.00930447,0.002245
 95,-0.00075196,0.00154509,-0.00089999,-0.00059641,0.00382957,0.0002827
 5,-0.00385318,0.00818069,-0.00105534,0.00101977,-0.00194595,-0.0022027
 0,-0.00058355,0.00049422,0.00059616,0.00027217,0.00169885,-0.00040646,
 0.00020342,0.00003971,0.00016078,-0.00009570,-0.00026350,0.00002559,0.
 00043896,-0.00066765,0.00070702,-0.00172261,-0.00868403,0.00816101,0.1
 1753712,-0.00058625,-0.00026775,-0.00045770,0.00131701,0.00147853,-0.0
 0017146,-0.00026455,-0.00039046,0.00019732,-0.00174504,0.00003550,-0.0
 0023570,-0.00022651,-0.00011780,0.00075344,-0.01085662,-0.01447075,0.0
 1531124,-0.07898153,-0.22023537,0.12721094,-0.01390388,-0.01272850,0.0
 0184665,0.00149342,-0.00250586,0.00013824,-0.00007976,0.00075853,0.000
 12117,0.00152312,0.00163747,0.00010516,0.00341190,-0.00476204,0.000060
 02,-0.00072792,0.00145712,0.00157299,0.00034800,-0.00016975,-0.0004170
 5,-0.00009254,-0.00087961,0.00014225,-0.00009494,-0.00007812,-0.000053
 09,0.00023295,0.00009199,-0.00000669,-0.00033606,0.00047529,-0.0006757
 3,0.00642151,0.01384618,-0.00815099,0.09314769,0.23682543,0.00020466,0
 .00006660,0.00014897,-0.00075219,-0.00056203,0.00017274,0.00011240,0.0
 0011942,-0.00014793,0.00112322,-0.00025001,0.00029809,0.00005960,0.001
 22639,-0.00041615,0.00280929,0.00072758,-0.00246509,0.07115034,0.13416
 733,-0.17526046,-0.01783207,-0.02249077,0.01390512,0.00271801,-0.00079
 669,0.00250004,-0.00065240,-0.00016263,-0.00140597,-0.00200609,0.00027
 545,-0.00032137,-0.00058523,0.00176563,0.00072684,0.00013471,-0.001200
 08,0.00002312,-0.00037573,0.00045368,0.00024688,0.00004710,0.00038705,
 -0.00016085,-0.00001072,-0.00011222,-0.00008078,-0.00001209,-0.0000389
 3,-0.00012630,-0.00065407,0.00011130,0.00030220,0.01018932,0.02360392,
 -0.01454088,-0.06566806,-0.13729099,0.17660180||-0.00001288,-0.0000066
 3,0.00000242,0.00000829,-0.00000426,0.00000220,-0.00000540,-0.00000099
 ,-0.00000573,-0.00001340,0.00000336,-0.00000049,0.00001744,-0.00001516
 ,-0.00000075,0.00000453,0.00001292,0.00000464,-0.00000541,0.00001585,-
 0.00002610,-0.00001019,0.00001163,0.00000160,-0.00000479,-0.00000381,-
 0.00000189,0.00000289,-0.00000147,0.00000103,0.00001048,-0.00000705,0.
 00000635,0.00002919,-0.00000309,0.00000445,-0.00002970,-0.00001653,0.0
 0000231,-0.00000147,0.00000111,0.00000604,0.00001427,-0.00000532,-0.00
 000155,0.00000017,0.00000471,0.00000373,-0.00000808,0.00000203,0.00000
 170,0.00000937,0.00000361,0.00000258,-0.00000346,0.00000141,-0.0000040
 9,-0.00000185,0.00000770,0.00000153|||@
 The archive entry for this job was punched.


 WAR ES EIN GOTT DER DIESE ZEICHEN SCHRIEB?
          - LUDWIG BOLTZMANN, QUOTING GOETHE, ABOUT MAXWELL'S EQUATIONS.
 Job cpu time:       0 days  0 hours  0 minutes 45.0 seconds.
 Elapsed time:       0 days  0 hours  0 minutes 43.5 seconds.
 File lengths (MBytes):  RWF=    144 Int=      0 D2E=      0 Chk=      6 Scr=      1
 Normal termination of Gaussian 16 at Tue Jun 11 18:22:17 2024.
