 Entering Link 1 = C:\G16W\l1.exe PID=     26152.
  
 Copyright (c) 1988-2019, Gaussian, Inc.  All Rights Reserved.
  
 This is part of the Gaussian(R) 16 program.  It is based on
 the Gaussian(R) 09 system (copyright 2009, Gaussian, Inc.),
 the Gaussian(R) 03 system (copyright 2003, Gaussian, Inc.),
 the Gaussian(R) 98 system (copyright 1998, Gaussian, Inc.),
 the Gaussian(R) 94 system (copyright 1995, Gaussian, Inc.),
 the Gaussian 92(TM) system (copyright 1992, Gaussian, Inc.),
 the Gaussian 90(TM) system (copyright 1990, Gaussian, Inc.),
 the Gaussian 88(TM) system (copyright 1988, Gaussian, Inc.),
 the Gaussian 86(TM) system (copyright 1986, Carnegie Mellon
 University), and the Gaussian 82(TM) system (copyright 1983,
 Carnegie Mellon University). Gaussian is a federally registered
 trademark of Gaussian, Inc.
  
 This software contains proprietary and confidential information,
 including trade secrets, belonging to Gaussian, Inc.
  
 This software is provided under written license and may be
 used, copied, transmitted, or stored only in accord with that
 written license.
  
 The following legend is applicable only to US Government
 contracts under FAR:
  
                    RESTRICTED RIGHTS LEGEND
  
 Use, reproduction and disclosure by the US Government is
 subject to restrictions as set forth in subparagraphs (a)
 and (c) of the Commercial Computer Software - Restricted
 Rights clause in FAR 52.227-19.
  
 Gaussian, Inc.
 340 Quinnipiac St., Bldg. 40, Wallingford CT 06492
  
  
 ---------------------------------------------------------------
 Warning -- This program may not be used in any manner that
 competes with the business of Gaussian, Inc. or will provide
 assistance to any competitor of Gaussian, Inc.  The licensee
 of this program is prohibited from giving any competitor of
 Gaussian, Inc. access to this program.  By using this program,
 the user acknowledges that Gaussian, Inc. is engaged in the
 business of creating and licensing software in the field of
 computational chemistry and represents and warrants to the
 licensee that it is not a competitor of Gaussian, Inc. and that
 it will not use this program in any manner prohibited above.
 ---------------------------------------------------------------
  

 Cite this work as:
 Gaussian 16, Revision C.01,
 M. J. Frisch, G. W. Trucks, H. B. Schlegel, G. E. Scuseria, 
 M. A. Robb, J. R. Cheeseman, G. Scalmani, V. Barone, 
 G. A. Petersson, H. Nakatsuji, X. Li, M. Caricato, A. V. Marenich, 
 J. Bloino, B. G. Janesko, R. Gomperts, B. Mennucci, H. P. Hratchian, 
 J. V. Ortiz, A. F. Izmaylov, J. L. Sonnenberg, D. Williams-Young, 
 F. Ding, F. Lipparini, F. Egidi, J. Goings, B. Peng, A. Petrone, 
 T. Henderson, D. Ranasinghe, V. G. Zakrzewski, J. Gao, N. Rega, 
 G. Zheng, W. Liang, M. Hada, M. Ehara, K. Toyota, R. Fukuda, 
 J. Hasegawa, M. Ishida, T. Nakajima, Y. Honda, O. Kitao, H. Nakai, 
 T. Vreven, K. Throssell, J. A. Montgomery, Jr., J. E. Peralta, 
 F. Ogliaro, M. J. Bearpark, J. J. Heyd, E. N. Brothers, K. N. Kudin, 
 V. N. Staroverov, T. A. Keith, R. Kobayashi, J. Normand, 
 K. Raghavachari, A. P. Rendell, J. C. Burant, S. S. Iyengar, 
 J. Tomasi, M. Cossi, J. M. Millam, M. Klene, C. Adamo, R. Cammi, 
 J. W. Ochterski, R. L. Martin, K. Morokuma, O. Farkas, 
 J. B. Foresman, and D. J. Fox, Gaussian, Inc., Wallingford CT, 2019.
 
 ******************************************
 Gaussian 16:  EM64W-G16RevC.01 30-May-2019
                11-Jun-2024 
 ******************************************
 %nprocshared=24
 Will use up to   24 processors via shared memory.
 %mem=120GB
 ----------------------
 # HF/6-31G(d) Opt Freq
 ----------------------
 1/18=20,19=15,38=1/1,3;
 2/9=110,12=2,17=6,18=5,40=1/2;
 3/5=1,6=6,7=1,11=9,25=1,30=1,71=1/1,2,3;
 4//1;
 5/5=2,38=5/2;
 6/7=2,8=2,9=2,10=2,28=1/1;
 7//1,2,3,16;
 1/18=20,19=15/3(2);
 2/9=110/2;
 99//99;
 2/9=110/2;
 3/5=1,6=6,7=1,11=9,25=1,30=1,71=1/1,2,3;
 4/5=5,16=3,69=1/1;
 5/5=2,38=5/2;
 7//1,2,3,16;
 1/18=20,19=15/3(-5);
 2/9=110/2;
 6/7=2,8=2,9=2,10=2,19=2,28=1/1;
 99/9=1/99;
 ----------------------------------------------------------------------
 O=[N+1]([O-1])OC(C(CO[N+1]([O-1])=O)O[N+1]([O-1])=O)O[N+1]([O-1])=O ge
 ometry optimization
 ----------------------------------------------------------------------
 Symbolic Z-matrix:
 Charge =  0 Multiplicity = 1
 O                    -3.99547   1.17572  -1.46393 
 N                    -3.14351   0.86848  -0.63604 
 O                    -3.03611   1.18836   0.54568 
 O                    -2.14078   0.03395  -1.17717 
 C                    -1.14031  -0.38981  -0.23334 
 C                     0.10734   0.52109  -0.44486 
 C                     1.26959   0.17891   0.50527 
 O                     1.86228  -1.05443   0.11595 
 N                     2.97278  -1.40694   0.92735 
 O                     3.26441  -0.63581   1.84091 
 O                     3.4884   -2.46702   0.58474 
 O                    -0.29752   1.87718  -0.20566 
 N                     0.44324   2.83788  -0.93956 
 O                     1.38197   2.41877  -1.61475 
 O                     0.03039   3.9808   -0.77456 
 O                    -0.81969  -1.73786  -0.59633 
 N                    -0.73156  -2.62564   0.49547 
 O                    -0.71715  -3.80239   0.15116 
 O                    -0.62543  -2.12298   1.61272 
 H                    -1.50523  -0.30904   0.79405 
 H                     0.4167    0.365    -1.48796 
 H                     2.0205    0.97754   0.46508 
 H                     0.89516   0.12826   1.53577 
 

 GradGradGradGradGradGradGradGradGradGradGradGradGradGradGradGradGradGrad
 Berny optimization.
 Initialization pass.
                           ----------------------------
                           !    Initial Parameters    !
                           ! (Angstroms and Degrees)  !
 --------------------------                            --------------------------
 ! Name  Definition              Value          Derivative Info.                !
 --------------------------------------------------------------------------------
 ! R1    R(1,2)                  1.227          estimate D2E/DX2                !
 ! R2    R(2,3)                  1.229          estimate D2E/DX2                !
 ! R3    R(2,4)                  1.4123         estimate D2E/DX2                !
 ! R4    R(4,5)                  1.4392         estimate D2E/DX2                !
 ! R5    R(5,6)                  1.5592         estimate D2E/DX2                !
 ! R6    R(5,16)                 1.4324         estimate D2E/DX2                !
 ! R7    R(5,20)                 1.0933         estimate D2E/DX2                !
 ! R8    R(6,7)                  1.5397         estimate D2E/DX2                !
 ! R9    R(6,12)                 1.4353         estimate D2E/DX2                !
 ! R10   R(6,21)                 1.0991         estimate D2E/DX2                !
 ! R11   R(7,8)                  1.4227         estimate D2E/DX2                !
 ! R12   R(7,22)                 1.097          estimate D2E/DX2                !
 ! R13   R(7,23)                 1.0976         estimate D2E/DX2                !
 ! R14   R(8,9)                  1.4198         estimate D2E/DX2                !
 ! R15   R(9,10)                 1.2306         estimate D2E/DX2                !
 ! R16   R(9,11)                 1.2276         estimate D2E/DX2                !
 ! R17   R(12,13)                1.4178         estimate D2E/DX2                !
 ! R18   R(13,14)                1.2299         estimate D2E/DX2                !
 ! R19   R(13,15)                1.2264         estimate D2E/DX2                !
 ! R20   R(16,17)                1.4099         estimate D2E/DX2                !
 ! R21   R(17,18)                1.2262         estimate D2E/DX2                !
 ! R22   R(17,19)                1.2297         estimate D2E/DX2                !
 ! A1    A(1,2,3)              130.1114         estimate D2E/DX2                !
 ! A2    A(1,2,4)              112.4821         estimate D2E/DX2                !
 ! A3    A(3,2,4)              117.398          estimate D2E/DX2                !
 ! A4    A(2,4,5)              114.5985         estimate D2E/DX2                !
 ! A5    A(4,5,6)              107.1738         estimate D2E/DX2                !
 ! A6    A(4,5,16)             105.4566         estimate D2E/DX2                !
 ! A7    A(4,5,20)             111.2535         estimate D2E/DX2                !
 ! A8    A(6,5,16)             109.6526         estimate D2E/DX2                !
 ! A9    A(6,5,20)             110.5744         estimate D2E/DX2                !
 ! A10   A(16,5,20)            112.4814         estimate D2E/DX2                !
 ! A11   A(5,6,7)              112.9841         estimate D2E/DX2                !
 ! A12   A(5,6,12)             107.6768         estimate D2E/DX2                !
 ! A13   A(5,6,21)             105.7236         estimate D2E/DX2                !
 ! A14   A(7,6,12)             108.6659         estimate D2E/DX2                !
 ! A15   A(7,6,21)             109.9748         estimate D2E/DX2                !
 ! A16   A(12,6,21)            111.8221         estimate D2E/DX2                !
 ! A17   A(6,7,8)              109.7714         estimate D2E/DX2                !
 ! A18   A(6,7,22)             109.4102         estimate D2E/DX2                !
 ! A19   A(6,7,23)             109.3976         estimate D2E/DX2                !
 ! A20   A(8,7,22)             109.6303         estimate D2E/DX2                !
 ! A21   A(8,7,23)             111.0415         estimate D2E/DX2                !
 ! A22   A(22,7,23)            107.5487         estimate D2E/DX2                !
 ! A23   A(7,8,9)              112.6245         estimate D2E/DX2                !
 ! A24   A(8,9,10)             117.0035         estimate D2E/DX2                !
 ! A25   A(8,9,11)             112.5456         estimate D2E/DX2                !
 ! A26   A(10,9,11)            130.4504         estimate D2E/DX2                !
 ! A27   A(6,12,13)            113.9881         estimate D2E/DX2                !
 ! A28   A(12,13,14)           116.8734         estimate D2E/DX2                !
 ! A29   A(12,13,15)           112.7028         estimate D2E/DX2                !
 ! A30   A(14,13,15)           130.4194         estimate D2E/DX2                !
 ! A31   A(5,16,17)            114.2259         estimate D2E/DX2                !
 ! A32   A(16,17,18)           112.8033         estimate D2E/DX2                !
 ! A33   A(16,17,19)           116.8435         estimate D2E/DX2                !
 ! A34   A(18,17,19)           130.2706         estimate D2E/DX2                !
 ! D1    D(1,2,3,4)           -178.8533         estimate D2E/DX2                !
 ! D2    D(1,2,4,5)           -178.0895         estimate D2E/DX2                !
 ! D3    D(3,2,4,5)              2.8596         estimate D2E/DX2                !
 ! D4    D(2,4,5,6)           -100.0756         estimate D2E/DX2                !
 ! D5    D(2,4,5,16)           143.1373         estimate D2E/DX2                !
 ! D6    D(2,4,5,20)            20.9132         estimate D2E/DX2                !
 ! D7    D(4,5,6,7)           -179.9589         estimate D2E/DX2                !
 ! D8    D(4,5,6,12)            60.0379         estimate D2E/DX2                !
 ! D9    D(4,5,6,21)           -59.6342         estimate D2E/DX2                !
 ! D10   D(16,5,6,7)           -65.9695         estimate D2E/DX2                !
 ! D11   D(16,5,6,12)          174.0274         estimate D2E/DX2                !
 ! D12   D(16,5,6,21)           54.3552         estimate D2E/DX2                !
 ! D13   D(20,5,6,7)            58.6238         estimate D2E/DX2                !
 ! D14   D(20,5,6,12)          -61.3794         estimate D2E/DX2                !
 ! D15   D(20,5,6,21)          178.9485         estimate D2E/DX2                !
 ! D16   D(4,5,16,17)         -135.5367         estimate D2E/DX2                !
 ! D17   D(6,5,16,17)          109.3729         estimate D2E/DX2                !
 ! D18   D(20,5,16,17)         -14.1066         estimate D2E/DX2                !
 ! D19   D(5,6,7,8)             71.976          estimate D2E/DX2                !
 ! D20   D(5,6,7,22)          -167.6818         estimate D2E/DX2                !
 ! D21   D(5,6,7,23)           -50.1015         estimate D2E/DX2                !
 ! D22   D(12,6,7,8)          -168.5896         estimate D2E/DX2                !
 ! D23   D(12,6,7,22)          -48.2473         estimate D2E/DX2                !
 ! D24   D(12,6,7,23)           69.333          estimate D2E/DX2                !
 ! D25   D(21,6,7,8)           -45.8879         estimate D2E/DX2                !
 ! D26   D(21,6,7,22)           74.4544         estimate D2E/DX2                !
 ! D27   D(21,6,7,23)         -167.9653         estimate D2E/DX2                !
 ! D28   D(5,6,12,13)         -150.9093         estimate D2E/DX2                !
 ! D29   D(7,6,12,13)           86.3908         estimate D2E/DX2                !
 ! D30   D(21,6,12,13)         -35.1881         estimate D2E/DX2                !
 ! D31   D(6,7,8,9)            178.0334         estimate D2E/DX2                !
 ! D32   D(22,7,8,9)            57.8249         estimate D2E/DX2                !
 ! D33   D(23,7,8,9)           -60.8739         estimate D2E/DX2                !
 ! D34   D(7,8,9,10)             0.6802         estimate D2E/DX2                !
 ! D35   D(7,8,9,11)          -179.5582         estimate D2E/DX2                !
 ! D36   D(8,9,10,11)          179.7106         estimate D2E/DX2                !
 ! D37   D(6,12,13,14)          -4.4668         estimate D2E/DX2                !
 ! D38   D(6,12,13,15)         176.2174         estimate D2E/DX2                !
 ! D39   D(12,13,14,15)       -179.1709         estimate D2E/DX2                !
 ! D40   D(5,16,17,18)         166.6461         estimate D2E/DX2                !
 ! D41   D(5,16,17,19)         -16.3165         estimate D2E/DX2                !
 ! D42   D(16,17,18,19)        176.5351         estimate D2E/DX2                !
 --------------------------------------------------------------------------------
 Trust Radius=3.00D-01 FncErr=1.00D-07 GrdErr=1.00D-07 EigMax=2.50D+02 EigMin=1.00D-04
 Number of steps in this run=    108 maximum allowed number of steps=    138.
 GradGradGradGradGradGradGradGradGradGradGradGradGradGradGradGradGradGrad

                          Input orientation:                          
 ---------------------------------------------------------------------
 Center     Atomic      Atomic             Coordinates (Angstroms)
 Number     Number       Type             X           Y           Z
 ---------------------------------------------------------------------
      1          8           0       -3.995467    1.175721   -1.463934
      2          7           0       -3.143508    0.868482   -0.636045
      3          8           0       -3.036111    1.188362    0.545678
      4          8           0       -2.140781    0.033946   -1.177167
      5          6           0       -1.140311   -0.389810   -0.233339
      6          6           0        0.107339    0.521087   -0.444865
      7          6           0        1.269589    0.178907    0.505269
      8          8           0        1.862278   -1.054431    0.115946
      9          7           0        2.972784   -1.406937    0.927353
     10          8           0        3.264408   -0.635806    1.840913
     11          8           0        3.488403   -2.467021    0.584743
     12          8           0       -0.297516    1.877178   -0.205656
     13          7           0        0.443240    2.837879   -0.939561
     14          8           0        1.381968    2.418774   -1.614751
     15          8           0        0.030386    3.980797   -0.774557
     16          8           0       -0.819691   -1.737864   -0.596325
     17          7           0       -0.731559   -2.625641    0.495470
     18          8           0       -0.717155   -3.802394    0.151157
     19          8           0       -0.625426   -2.122981    1.612721
     20          1           0       -1.505230   -0.309040    0.794045
     21          1           0        0.416696    0.364995   -1.487955
     22          1           0        2.020503    0.977540    0.465085
     23          1           0        0.895161    0.128256    1.535774
 ---------------------------------------------------------------------
                    Distance matrix (angstroms):
                    1          2          3          4          5
     1  O    0.000000
     2  N    1.227041   0.000000
     3  O    2.226895   1.228953   0.000000
     4  O    2.196758   1.412348   2.258869   0.000000
     5  C    3.480972   2.399639   2.586803   1.439209   0.000000
     6  C    4.277857   3.274941   3.362694   2.414045   1.559200
     7  C    5.708959   4.610156   4.422633   3.805552   2.583911
     8  O    6.463959   5.414885   5.404536   4.345248   3.095038
     9  N    7.806721   6.710497   6.556529   5.714341   4.393097
    10  O    8.179818   7.032751   6.685938   6.226832   4.874893
    11  O    8.571753   7.523174   7.478812   6.406783   5.138974
    12  O    3.968645   3.049979   2.922135   2.781899   2.418740
    13  N    4.768632   4.103097   4.127072   3.820426   3.663926
    14  O    5.521298   4.882745   5.069595   4.276522   4.019743
    15  O    4.954915   4.447391   4.352484   4.522576   4.556934
    16  O    4.396280   3.492098   3.844411   2.285163   1.432413
    17  N    5.379843   4.393942   4.456468   3.443404   2.386877
    18  O    6.175554   5.322026   5.517323   4.302169   3.460149
    19  O    5.630667   4.510713   4.232609   3.838243   2.583975
    20  H    3.674814   2.472988   2.155805   2.099343   1.093255
    21  H    4.486094   3.695173   4.090901   2.597474   2.137303
    22  H    6.320782   5.281230   5.061649   4.572051   3.513999
    23  H    5.832124   4.644952   4.190348   4.072578   2.746143
                    6          7          8          9         10
     6  C    0.000000
     7  C    1.539697   0.000000
     8  O    2.424165   1.422665   0.000000
     9  N    3.716320   2.365149   1.419812   0.000000
    10  O    4.065743   2.535154   2.262018   1.230560   0.000000
    11  O    4.628226   3.454040   2.204420   1.227609   2.231924
    12  O    1.435309   2.417717   3.655471   4.771161   4.815686
    13  N    2.392714   3.136960   4.275258   5.282274   5.268445
    14  O    2.567981   3.086117   3.910135   4.860972   4.981531
    15  O    3.476235   4.198564   5.431605   6.370390   6.213904
    16  O    2.446463   3.041811   2.857860   4.100484   4.882061
    17  N    3.389672   3.445313   3.056261   3.923508   4.662339
    18  O    4.441567   4.463553   3.769087   4.467252   5.360540
    19  O    3.429533   3.180601   3.093672   3.732233   4.170680
    20  H    2.196449   2.832156   3.515045   4.612565   4.894094
    21  H    1.099138   2.176005   2.583984   3.937898   4.493598
    22  H    2.167154   1.096951   2.067810   2.608881   2.458269
    23  H    2.167467   1.097589   2.085659   2.653961   2.508033
                   11         12         13         14         15
    11  O    0.000000
    12  O    5.816355   0.000000
    13  N    6.303847   1.417844   0.000000
    14  O    5.757242   2.258216   1.229935   0.000000
    15  O    7.441769   2.203719   1.226351   2.229936   0.000000
    16  O    4.526175   3.673393   4.759225   4.812705   5.784244
    17  N    4.223885   4.577702   5.769707   5.862265   6.770417
    18  O    4.433726   5.706220   6.828572   6.799093   7.873615
    19  O    4.254255   4.406279   5.680345   5.922309   6.586751
    20  H    5.443993   2.690265   4.087178   4.645340   4.818851
    21  H    4.663880   2.107389   2.533100   2.272847   3.705697
    22  H    3.746205   2.575355   2.814543   2.609712   3.810096
    23  H    3.790095   2.741129   3.697780   3.925463   4.574663
                   16         17         18         19         20
    16  O    0.000000
    17  N    1.409941   0.000000
    18  O    2.198073   1.226175   0.000000
    19  O    2.250764   1.229708   2.228231   0.000000
    20  H    2.108230   2.460560   3.638391   2.175929   0.000000
    21  H    2.597243   3.767807   4.619462   4.109773   3.058701
    22  H    4.070222   4.534058   5.517344   4.234530   3.767532
    23  H    3.311943   3.363391   4.468415   2.717752   2.550151
                   21         22         23
    21  H    0.000000
    22  H    2.600341   0.000000
    23  H    3.070491   1.770326   0.000000
 Stoichiometry    C3H4N4O12
 Framework group  C1[X(C3H4N4O12)]
 Deg. of freedom    63
 Full point group                 C1      NOp   1
 Largest Abelian subgroup         C1      NOp   1
 Largest concise Abelian subgroup C1      NOp   1
                         Standard orientation:                         
 ---------------------------------------------------------------------
 Center     Atomic      Atomic             Coordinates (Angstroms)
 Number     Number       Type             X           Y           Z
 ---------------------------------------------------------------------
      1          8           0       -3.992681   -1.635925   -0.383939
      2          7           0       -2.946776   -1.345228    0.188083
      3          8           0       -2.729796   -1.123848    1.377300
      4          8           0       -1.855505   -1.239837   -0.702280
      5          6           0       -0.595640   -0.942569   -0.073240
      6          6           0       -0.338253    0.584231   -0.256928
      7          6           0        0.987898    1.050239    0.371425
      8          8           0        2.081385    0.574972   -0.404709
      9          7           0        3.336737    1.008490    0.097306
     10          8           0        3.322505    1.704747    1.111851
     11          8           0        4.278746    0.604749   -0.578442
     12          8           0       -1.418157    1.287397    0.375115
     13          7           0       -1.707484    2.545892   -0.210342
     14          8           0       -0.964040    2.922330   -1.114956
     15          8           0       -2.679654    3.092740    0.299344
     16          8           0        0.382850   -1.687813   -0.807390
     17          7           0        1.324614   -2.358370   -0.000315
     18          8           0        1.980275   -3.186420   -0.623169
     19          8           0        1.406270   -1.999154    1.172918
     20          1           0       -0.610968   -1.204653    0.988025
     21          1           0       -0.319661    0.754662   -1.342612
     22          1           0        1.009509    2.146428    0.406121
     23          1           0        1.049863    0.685143    1.404656
 ---------------------------------------------------------------------
 Rotational constants (GHZ):           0.4529330           0.2923562           0.1969570
 Standard basis: 6-31G(d) (6D, 7F)
 There are   293 symmetry adapted cartesian basis functions of A   symmetry.
 There are   293 symmetry adapted basis functions of A   symmetry.
   293 basis functions,   548 primitive gaussians,   293 cartesian basis functions
    73 alpha electrons       73 beta electrons
       nuclear repulsion energy      1636.9558664387 Hartrees.
 NAtoms=   23 NActive=   23 NUniq=   23 SFac= 1.00D+00 NAtFMM=   60 NAOKFM=F Big=F
 Integral buffers will be    131072 words long.
 Raffenetti 1 integral format.
 Two-electron integral symmetry is turned on.
 One-electron integrals computed using PRISM.
 NBasis=   293 RedAO= T EigKep=  2.27D-03  NBF=   293
 NBsUse=   293 1.00D-06 EigRej= -1.00D+00 NBFU=   293
 ExpMin= 1.61D-01 ExpMax= 5.48D+03 ExpMxC= 8.25D+02 IAcc=3 IRadAn=         5 AccDes= 0.00D+00
 Harris functional with IExCor=  205 and IRadAn=       5 diagonalized for initial guess.
 HarFok:  IExCor=  205 AccDes= 0.00D+00 IRadAn=         5 IDoV= 1 UseB2=F ITyADJ=14
 ICtDFT=  3500011 ScaDFX=  1.000000  1.000000  1.000000  1.000000
 FoFCou: FMM=F IPFlag=           0 FMFlag=      100000 FMFlg1=           0
         NFxFlg=           0 DoJE=T BraDBF=F KetDBF=T FulRan=T
         wScrn=  0.000000 ICntrl=       500 IOpCl=  0 I1Cent=   200000004 NGrid=           0
         NMat0=    1 NMatS0=      1 NMatT0=    0 NMatD0=    1 NMtDS0=    0 NMtDT0=    0
 Petite list used in FoFCou.
 Requested convergence on RMS density matrix=1.00D-08 within 128 cycles.
 Requested convergence on MAX density matrix=1.00D-06.
 Requested convergence on             energy=1.00D-06.
 No special actions if energy rises.
 Integral accuracy reduced to 1.0D-05 until final iterations.
 Initial convergence to 1.0D-05 achieved.  Increase integral accuracy.
 SCF Done:  E(RHF) =  -1231.30263397     A.U. after   17 cycles
            NFock= 17  Conv=0.66D-08     -V/T= 2.0045

 **********************************************************************

            Population analysis using the SCF Density.

 **********************************************************************

 Orbital symmetries:
       Occupied  (A) (A) (A) (A) (A) (A) (A) (A) (A) (A) (A) (A)
                 (A) (A) (A) (A) (A) (A) (A) (A) (A) (A) (A) (A)
                 (A) (A) (A) (A) (A) (A) (A) (A) (A) (A) (A) (A)
                 (A) (A) (A) (A) (A) (A) (A) (A) (A) (A) (A) (A)
                 (A) (A) (A) (A) (A) (A) (A) (A) (A) (A) (A) (A)
                 (A) (A) (A) (A) (A) (A) (A) (A) (A) (A) (A) (A)
                 (A)
       Virtual   (A) (A) (A) (A) (A) (A) (A) (A) (A) (A) (A) (A)
                 (A) (A) (A) (A) (A) (A) (A) (A) (A) (A) (A) (A)
                 (A) (A) (A) (A) (A) (A) (A) (A) (A) (A) (A) (A)
                 (A) (A) (A) (A) (A) (A) (A) (A) (A) (A) (A) (A)
                 (A) (A) (A) (A) (A) (A) (A) (A) (A) (A) (A) (A)
                 (A) (A) (A) (A) (A) (A) (A) (A) (A) (A) (A) (A)
                 (A) (A) (A) (A) (A) (A) (A) (A) (A) (A) (A) (A)
                 (A) (A) (A) (A) (A) (A) (A) (A) (A) (A) (A) (A)
                 (A) (A) (A) (A) (A) (A) (A) (A) (A) (A) (A) (A)
                 (A) (A) (A) (A) (A) (A) (A) (A) (A) (A) (A) (A)
                 (A) (A) (A) (A) (A) (A) (A) (A) (A) (A) (A) (A)
                 (A) (A) (A) (A) (A) (A) (A) (A) (A) (A) (A) (A)
                 (A) (A) (A) (A) (A) (A) (A) (A) (A) (A) (A) (A)
                 (A) (A) (A) (A) (A) (A) (A) (A) (A) (A) (A) (A)
                 (A) (A) (A) (A) (A) (A) (A) (A) (A) (A) (A) (A)
                 (A) (A) (A) (A) (A) (A) (A) (A) (A) (A) (A) (A)
                 (A) (A) (A) (A) (A) (A) (A) (A) (A) (A) (A) (A)
                 (A) (A) (A) (A) (A) (A) (A) (A) (A) (A) (A) (A)
                 (A) (A) (A) (A)
 The electronic state is 1-A.
 Alpha  occ. eigenvalues --  -20.74470 -20.73706 -20.73637 -20.71923 -20.69270
 Alpha  occ. eigenvalues --  -20.69054 -20.68646 -20.68628 -20.68446 -20.68372
 Alpha  occ. eigenvalues --  -20.67323 -20.67005 -15.98623 -15.97992 -15.97975
 Alpha  occ. eigenvalues --  -15.96470 -11.45717 -11.39516 -11.36477  -1.70570
 Alpha  occ. eigenvalues --   -1.69746  -1.69550  -1.68051  -1.51930  -1.48506
 Alpha  occ. eigenvalues --   -1.48265  -1.47671  -1.47489  -1.46857  -1.46138
 Alpha  occ. eigenvalues --   -1.45928  -1.15780  -1.07658  -1.01892  -0.97452
 Alpha  occ. eigenvalues --   -0.94057  -0.92403  -0.90284  -0.87140  -0.84935
 Alpha  occ. eigenvalues --   -0.84350  -0.83516  -0.82745  -0.81676  -0.80792
 Alpha  occ. eigenvalues --   -0.80664  -0.80013  -0.79774  -0.78889  -0.78189
 Alpha  occ. eigenvalues --   -0.72882  -0.72130  -0.70189  -0.67940  -0.65768
 Alpha  occ. eigenvalues --   -0.64405  -0.62811  -0.61020  -0.59614  -0.58825
 Alpha  occ. eigenvalues --   -0.57615  -0.56959  -0.56701  -0.56184  -0.55592
 Alpha  occ. eigenvalues --   -0.55341  -0.54930  -0.53892  -0.53046  -0.52022
 Alpha  occ. eigenvalues --   -0.51599  -0.51368  -0.50089
 Alpha virt. eigenvalues --    0.04117   0.04793   0.05045   0.06265   0.14766
 Alpha virt. eigenvalues --    0.16468   0.18911   0.22470   0.23424   0.24743
 Alpha virt. eigenvalues --    0.26146   0.27629   0.28142   0.31567   0.33147
 Alpha virt. eigenvalues --    0.35857   0.37367   0.41609   0.42939   0.43160
 Alpha virt. eigenvalues --    0.44257   0.44827   0.53685   0.54488   0.56788
 Alpha virt. eigenvalues --    0.56985   0.65435   0.67039   0.67842   0.69652
 Alpha virt. eigenvalues --    0.73216   0.74750   0.75731   0.77411   0.79196
 Alpha virt. eigenvalues --    0.80389   0.81434   0.82120   0.82670   0.84589
 Alpha virt. eigenvalues --    0.85288   0.86584   0.87399   0.88597   0.88805
 Alpha virt. eigenvalues --    0.90893   0.92317   0.95781   0.97703   0.99359
 Alpha virt. eigenvalues --    1.00073   1.00797   1.02336   1.02643   1.03822
 Alpha virt. eigenvalues --    1.04267   1.04590   1.05717   1.07110   1.07479
 Alpha virt. eigenvalues --    1.08457   1.10778   1.12366   1.12831   1.13727
 Alpha virt. eigenvalues --    1.15317   1.16202   1.16869   1.17828   1.17951
 Alpha virt. eigenvalues --    1.19743   1.20031   1.20573   1.20899   1.21799
 Alpha virt. eigenvalues --    1.22251   1.23096   1.24258   1.25357   1.25701
 Alpha virt. eigenvalues --    1.26704   1.28494   1.31272   1.32383   1.32603
 Alpha virt. eigenvalues --    1.34740   1.35289   1.37975   1.38516   1.41716
 Alpha virt. eigenvalues --    1.46559   1.51017   1.52495   1.54767   1.55256
 Alpha virt. eigenvalues --    1.56729   1.58278   1.59370   1.61582   1.62253
 Alpha virt. eigenvalues --    1.63330   1.64354   1.66060   1.67506   1.68965
 Alpha virt. eigenvalues --    1.69567   1.70875   1.72387   1.74139   1.78706
 Alpha virt. eigenvalues --    1.81020   1.84120   1.87964   1.89799   1.92637
 Alpha virt. eigenvalues --    1.93004   1.94865   1.95748   1.96659   1.98655
 Alpha virt. eigenvalues --    2.00246   2.01173   2.02083   2.02587   2.02859
 Alpha virt. eigenvalues --    2.03348   2.03492   2.03973   2.04145   2.04349
 Alpha virt. eigenvalues --    2.04744   2.05679   2.06568   2.12356   2.13272
 Alpha virt. eigenvalues --    2.14849   2.16387   2.17678   2.19975   2.21408
 Alpha virt. eigenvalues --    2.22700   2.23491   2.24987   2.26100   2.27554
 Alpha virt. eigenvalues --    2.28905   2.28978   2.29847   2.31235   2.33017
 Alpha virt. eigenvalues --    2.34144   2.35004   2.37337   2.37555   2.39187
 Alpha virt. eigenvalues --    2.40242   2.41572   2.45058   2.47975   2.49169
 Alpha virt. eigenvalues --    2.50226   2.52593   2.53676   2.58087   2.65781
 Alpha virt. eigenvalues --    2.67826   2.71261   2.74615   2.77685   2.78595
 Alpha virt. eigenvalues --    2.81882   2.84852   2.94504   2.95745   2.97120
 Alpha virt. eigenvalues --    2.97791   2.98767   2.99116   2.99736   3.01080
 Alpha virt. eigenvalues --    3.06031   3.08872   3.10067   3.11808   3.12701
 Alpha virt. eigenvalues --    3.14400   3.14688   3.15444   3.15487   3.16150
 Alpha virt. eigenvalues --    3.16550   3.17112   3.17778   3.29719   3.31513
 Alpha virt. eigenvalues --    3.34062   3.35270   3.37901   3.38885   3.40467
 Alpha virt. eigenvalues --    3.48049   3.95442   3.96549   3.98356   4.00314
 Alpha virt. eigenvalues --    4.14742   4.15881   4.16424   4.17545   4.20397
 Alpha virt. eigenvalues --    4.21379   4.24512   4.28853   4.34186   4.45604
 Alpha virt. eigenvalues --    4.52050   4.55993   4.64823   4.81607   5.01969
          Condensed to atoms (all electrons):
               1          2          3          4          5          6
     1  O    8.160218   0.377121  -0.076040  -0.082942   0.002341  -0.000098
     2  N    0.377121   5.229485   0.319589   0.192307  -0.030038   0.000995
     3  O   -0.076040   0.319589   8.265213  -0.087624  -0.005453  -0.000485
     4  O   -0.082942   0.192307  -0.087624   8.436181   0.147817  -0.056965
     5  C    0.002341  -0.030038  -0.005453   0.147817   4.690791   0.354092
     6  C   -0.000098   0.000995  -0.000485  -0.056965   0.354092   4.992360
     7  C    0.000000  -0.000056   0.000014   0.002593  -0.059493   0.310188
     8  O    0.000000   0.000000   0.000000  -0.000020   0.004106  -0.028068
     9  N    0.000000   0.000000   0.000000   0.000000  -0.000149   0.002288
    10  O    0.000000   0.000000   0.000000   0.000000  -0.000012   0.000738
    11  O    0.000000   0.000000   0.000000   0.000000   0.000002  -0.000064
    12  O   -0.000110  -0.000208  -0.000481   0.003805  -0.035650   0.127235
    13  N    0.000001   0.000012   0.000035  -0.000076   0.002350  -0.034176
    14  O    0.000000   0.000000  -0.000001  -0.000004   0.000203  -0.002770
    15  O    0.000000  -0.000002   0.000000  -0.000002  -0.000027   0.002785
    16  O   -0.000025   0.001276   0.000057  -0.030420   0.157682  -0.045047
    17  N    0.000000  -0.000002   0.000024   0.001366  -0.032649   0.002069
    18  O    0.000000   0.000000   0.000000  -0.000025   0.002329  -0.000072
    19  O    0.000000   0.000028  -0.000020   0.000084  -0.002535  -0.002143
    20  H    0.000108  -0.003485   0.010623  -0.022295   0.375035  -0.035412
    21  H   -0.000007   0.000056  -0.000014  -0.000541  -0.031636   0.382100
    22  H    0.000000   0.000001   0.000000  -0.000041   0.003267  -0.030722
    23  H    0.000000   0.000000  -0.000019  -0.000008  -0.005066  -0.036685
               7          8          9         10         11         12
     1  O    0.000000   0.000000   0.000000   0.000000   0.000000  -0.000110
     2  N   -0.000056   0.000000   0.000000   0.000000   0.000000  -0.000208
     3  O    0.000014   0.000000   0.000000   0.000000   0.000000  -0.000481
     4  O    0.002593  -0.000020   0.000000   0.000000   0.000000   0.003805
     5  C   -0.059493   0.004106  -0.000149  -0.000012   0.000002  -0.035650
     6  C    0.310188  -0.028068   0.002288   0.000738  -0.000064   0.127235
     7  C    4.975820   0.119728  -0.037594   0.000437   0.003207  -0.034437
     8  O    0.119728   8.435010   0.200392  -0.086512  -0.084396   0.000779
     9  N   -0.037594   0.200392   5.233839   0.323792   0.375308  -0.000009
    10  O    0.000437  -0.086512   0.323792   8.255465  -0.073828   0.000002
    11  O    0.003207  -0.084396   0.375308  -0.073828   8.171904   0.000000
    12  O   -0.034437   0.000779  -0.000009   0.000002   0.000000   8.445020
    13  N   -0.000515  -0.000037  -0.000001   0.000000   0.000000   0.194164
    14  O   -0.003293   0.000007   0.000000   0.000000   0.000000  -0.088707
    15  O   -0.000004   0.000000   0.000000   0.000000   0.000000  -0.083075
    16  O    0.006424  -0.002611   0.000036  -0.000001  -0.000002   0.000769
    17  N   -0.001806   0.000440   0.000027   0.000002   0.000018  -0.000009
    18  O   -0.000025  -0.000199  -0.000005   0.000000  -0.000003   0.000000
    19  O    0.001096  -0.000321   0.000292  -0.000017  -0.000016   0.000005
    20  H   -0.000653   0.000049  -0.000003  -0.000002   0.000000   0.000661
    21  H   -0.036975   0.003716  -0.000126  -0.000002  -0.000001  -0.020507
    22  H    0.394267  -0.027706  -0.003498   0.002642   0.000013  -0.000967
    23  H    0.390127  -0.030399  -0.002967   0.001650   0.000006   0.002018
              13         14         15         16         17         18
     1  O    0.000001   0.000000   0.000000  -0.000025   0.000000   0.000000
     2  N    0.000012   0.000000  -0.000002   0.001276  -0.000002   0.000000
     3  O    0.000035  -0.000001   0.000000   0.000057   0.000024   0.000000
     4  O   -0.000076  -0.000004  -0.000002  -0.030420   0.001366  -0.000025
     5  C    0.002350   0.000203  -0.000027   0.157682  -0.032649   0.002329
     6  C   -0.034176  -0.002770   0.002785  -0.045047   0.002069  -0.000072
     7  C   -0.000515  -0.003293  -0.000004   0.006424  -0.001806  -0.000025
     8  O   -0.000037   0.000007   0.000000  -0.002611   0.000440  -0.000199
     9  N   -0.000001   0.000000   0.000000   0.000036   0.000027  -0.000005
    10  O    0.000000   0.000000   0.000000  -0.000001   0.000002   0.000000
    11  O    0.000000   0.000000   0.000000  -0.000002   0.000018  -0.000003
    12  O    0.194164  -0.088707  -0.083075   0.000769  -0.000009   0.000000
    13  N    5.240964   0.317514   0.378856  -0.000011   0.000000   0.000000
    14  O    0.317514   8.268033  -0.075264   0.000002   0.000000   0.000000
    15  O    0.378856  -0.075264   8.154935   0.000000   0.000000   0.000000
    16  O   -0.000011   0.000002   0.000000   8.403069   0.192528  -0.081753
    17  N    0.000000   0.000000   0.000000   0.192528   5.236326   0.381544
    18  O    0.000000   0.000000   0.000000  -0.081753   0.381544   8.140142
    19  O    0.000000   0.000000   0.000000  -0.090472   0.311426  -0.075839
    20  H   -0.000094  -0.000008   0.000002  -0.021377  -0.003657   0.000101
    21  H   -0.005158   0.005843   0.000036   0.000614   0.000046  -0.000002
    22  H   -0.000066   0.003475  -0.000115  -0.000075   0.000011   0.000000
    23  H    0.000010   0.000177  -0.000006   0.000065  -0.000147   0.000005
              19         20         21         22         23
     1  O    0.000000   0.000108  -0.000007   0.000000   0.000000
     2  N    0.000028  -0.003485   0.000056   0.000001   0.000000
     3  O   -0.000020   0.010623  -0.000014   0.000000  -0.000019
     4  O    0.000084  -0.022295  -0.000541  -0.000041  -0.000008
     5  C   -0.002535   0.375035  -0.031636   0.003267  -0.005066
     6  C   -0.002143  -0.035412   0.382100  -0.030722  -0.036685
     7  C    0.001096  -0.000653  -0.036975   0.394267   0.390127
     8  O   -0.000321   0.000049   0.003716  -0.027706  -0.030399
     9  N    0.000292  -0.000003  -0.000126  -0.003498  -0.002967
    10  O   -0.000017  -0.000002  -0.000002   0.002642   0.001650
    11  O   -0.000016   0.000000  -0.000001   0.000013   0.000006
    12  O    0.000005   0.000661  -0.020507  -0.000967   0.002018
    13  N    0.000000  -0.000094  -0.005158  -0.000066   0.000010
    14  O    0.000000  -0.000008   0.005843   0.003475   0.000177
    15  O    0.000000   0.000002   0.000036  -0.000115  -0.000006
    16  O   -0.090472  -0.021377   0.000614  -0.000075   0.000065
    17  N    0.311426  -0.003657   0.000046   0.000011  -0.000147
    18  O   -0.075839   0.000101  -0.000002   0.000000   0.000005
    19  O    8.285538   0.008993  -0.000019   0.000092   0.001395
    20  H    0.008993   0.373090   0.002691  -0.000080   0.001994
    21  H   -0.000019   0.002691   0.419635  -0.002524   0.003243
    22  H    0.000092  -0.000080  -0.002524   0.450206  -0.029109
    23  H    0.001395   0.001994   0.003243  -0.029109   0.471622
 Mulliken charges:
               1
     1  O   -0.380568
     2  N    0.912922
     3  O   -0.425419
     4  O   -0.503188
     5  C    0.462692
     6  C    0.097859
     7  C   -0.029051
     8  O   -0.503956
     9  N    0.908379
    10  O   -0.424352
    11  O   -0.392149
    12  O   -0.510299
    13  N    0.906230
    14  O   -0.425205
    15  O   -0.378117
    16  O   -0.490729
    17  N    0.912441
    18  O   -0.366197
    19  O   -0.437567
    20  H    0.313718
    21  H    0.279532
    22  H    0.240930
    23  H    0.232092
 Sum of Mulliken charges =   0.00000
 Mulliken charges with hydrogens summed into heavy atoms:
               1
     1  O   -0.380568
     2  N    0.912922
     3  O   -0.425419
     4  O   -0.503188
     5  C    0.776410
     6  C    0.377390
     7  C    0.443972
     8  O   -0.503956
     9  N    0.908379
    10  O   -0.424352
    11  O   -0.392149
    12  O   -0.510299
    13  N    0.906230
    14  O   -0.425205
    15  O   -0.378117
    16  O   -0.490729
    17  N    0.912441
    18  O   -0.366197
    19  O   -0.437567
 Electronic spatial extent (au):  <R**2>=           5123.6300
 Charge=              0.0000 electrons
 Dipole moment (field-independent basis, Debye):
    X=             -0.6217    Y=              0.0520    Z=              0.3766  Tot=              0.7287
 Quadrupole moment (field-independent basis, Debye-Ang):
   XX=           -134.0067   YY=           -113.9016   ZZ=           -110.5775
   XY=              3.4629   XZ=              1.9698   YZ=             -1.8659
 Traceless Quadrupole moment (field-independent basis, Debye-Ang):
   XX=            -14.5115   YY=              5.5937   ZZ=              8.9178
   XY=              3.4629   XZ=              1.9698   YZ=             -1.8659
 Octapole moment (field-independent basis, Debye-Ang**2):
  XXX=            -13.3259  YYY=            -17.4814  ZZZ=             -3.3303  XYY=              3.5412
  XXY=             -0.8455  XXZ=             -5.5430  XZZ=             -0.5985  YZZ=              3.1784
  YYZ=              9.4862  XYZ=             -2.1552
 Hexadecapole moment (field-independent basis, Debye-Ang**3):
 XXXX=          -3898.1343 YYYY=          -2244.4101 ZZZZ=           -371.9465 XXXY=            -87.4686
 XXXZ=             17.6588 YYYX=            101.3750 YYYZ=              1.7213 ZZZX=             -0.6956
 ZZZY=              5.0878 XXYY=          -1031.9265 XXZZ=           -674.8494 YYZZ=           -448.9220
 XXYZ=            -37.2536 YYXZ=            -16.6061 ZZXY=             -9.8416
 N-N= 1.636955866439D+03 E-N=-6.171169120748D+03  KE= 1.225793710396D+03
 Calling FoFJK, ICntrl=      2127 FMM=F ISym2X=0 I1Cent= 0 IOpClX= 0 NMat=1 NMatS=1 NMatT=0.
 ***** Axes restored to original set *****
 -------------------------------------------------------------------
 Center     Atomic                   Forces (Hartrees/Bohr)
 Number     Number              X              Y              Z
 -------------------------------------------------------------------
      1        8           0.072008138   -0.025764300    0.070454369
      2        7          -0.028034456    0.018794507   -0.002981161
      3        8          -0.013560392   -0.021708379   -0.083124731
      4        8          -0.019181755    0.013642002    0.031057188
      5        6          -0.000433611    0.020151595    0.004954458
      6        6           0.008574193   -0.027788397   -0.019437492
      7        6           0.000310870    0.021894008    0.019057011
      8        8           0.036354015   -0.008200253    0.030375269
      9        7           0.015480421   -0.016811687    0.003852700
     10        8          -0.017714340   -0.058505036   -0.065788607
     11        8          -0.040505680    0.087398080    0.030004651
     12        8           0.027291266    0.015346409   -0.028293043
     13        7           0.004295972    0.027648670   -0.006969458
     14        8          -0.065150174    0.035595934    0.045770134
     15        8           0.035724272   -0.096075556   -0.014612025
     16        8          -0.008290914   -0.001237638    0.037758211
     17        7           0.010297676   -0.036705623    0.008070390
     18        8          -0.002563064    0.103174066    0.031274894
     19        8          -0.009253012   -0.039698667   -0.072424502
     20        1           0.001743640   -0.006454291   -0.018432585
     21        1          -0.003589545    0.008444184    0.013521201
     22        1          -0.009921117   -0.010500611   -0.002336028
     23        1           0.006117596   -0.002639017   -0.011750843
 -------------------------------------------------------------------
 Cartesian Forces:  Max     0.103174066 RMS     0.035747131

 GradGradGradGradGradGradGradGradGradGradGradGradGradGradGradGradGradGrad
 Berny optimization.
 FormGI is forming the generalized inverse of G from B-inverse, IUseBI=4.
 Internal  Forces:  Max     0.107827675 RMS     0.029848633
 Search for a local minimum.
 Step number   1 out of a maximum of  108
 All quantities printed in internal units (Hartrees-Bohrs-Radians)
 Mixed Optimization -- RFO/linear search
 Second derivative matrix not updated -- first step.
 ITU=  0
     Eigenvalues ---    0.00230   0.00241   0.01033   0.01059   0.01131
     Eigenvalues ---    0.01163   0.01173   0.01225   0.01263   0.01392
     Eigenvalues ---    0.02902   0.02914   0.02940   0.02956   0.04300
     Eigenvalues ---    0.04846   0.05044   0.05355   0.05865   0.06790
     Eigenvalues ---    0.07192   0.09289   0.11267   0.13763   0.16674
     Eigenvalues ---    0.18245   0.19585   0.19729   0.22001   0.24979
     Eigenvalues ---    0.24998   0.24999   0.25000   0.25000   0.25000
     Eigenvalues ---    0.25000   0.25000   0.25000   0.25000   0.25000
     Eigenvalues ---    0.25000   0.26884   0.28546   0.33778   0.33950
     Eigenvalues ---    0.34022   0.34439   0.39694   0.40236   0.40645
     Eigenvalues ---    0.42062   0.42489   0.42787   0.43634   0.44012
     Eigenvalues ---    0.90853   0.91113   0.91208   0.91524   0.92090
     Eigenvalues ---    0.92330   0.92624   0.92699
 RFO step:  Lambda=-1.02902148D-01 EMin= 2.30000000D-03
 Linear search not attempted -- first point.
 Maximum step size (   0.300) exceeded in Quadratic search.
    -- Step size scaled by   0.822
 Iteration  1 RMS(Cart)=  0.06510729 RMS(Int)=  0.00119742
 Iteration  2 RMS(Cart)=  0.00267703 RMS(Int)=  0.00016228
 Iteration  3 RMS(Cart)=  0.00000320 RMS(Int)=  0.00016227
 Iteration  4 RMS(Cart)=  0.00000000 RMS(Int)=  0.00016227
 Variable       Old X    -DE/DX   Delta X   Delta X   Delta X     New X
                                 (Linear)    (Quad)   (Total)
    R1        2.31877  -0.10398   0.00000  -0.08331  -0.08331   2.23546
    R2        2.32238  -0.08677   0.00000  -0.07007  -0.07007   2.25232
    R3        2.66895  -0.04453   0.00000  -0.06790  -0.06790   2.60105
    R4        2.71971  -0.02234   0.00000  -0.03674  -0.03674   2.68297
    R5        2.94646  -0.01542   0.00000  -0.03411  -0.03411   2.91235
    R6        2.70687  -0.02741   0.00000  -0.04425  -0.04425   2.66262
    R7        2.06595  -0.01838   0.00000  -0.03379  -0.03379   2.03217
    R8        2.90961  -0.00816   0.00000  -0.01727  -0.01727   2.89233
    R9        2.71234  -0.01781   0.00000  -0.02899  -0.02899   2.68335
   R10        2.07707  -0.01504   0.00000  -0.02806  -0.02806   2.04901
   R11        2.68845  -0.00560   0.00000  -0.00879  -0.00879   2.67965
   R12        2.07294  -0.01435   0.00000  -0.02663  -0.02663   2.04631
   R13        2.07414  -0.01300   0.00000  -0.02416  -0.02416   2.04999
   R14        2.68306  -0.05468   0.00000  -0.08518  -0.08518   2.59788
   R15        2.32542  -0.08970   0.00000  -0.07292  -0.07292   2.25250
   R16        2.31984  -0.10086   0.00000  -0.08100  -0.08100   2.23885
   R17        2.67934  -0.04790   0.00000  -0.07419  -0.07419   2.60514
   R18        2.32424  -0.08698   0.00000  -0.07053  -0.07053   2.25371
   R19        2.31747  -0.10353   0.00000  -0.08271  -0.08271   2.23475
   R20        2.66440  -0.04257   0.00000  -0.06445  -0.06445   2.59995
   R21        2.31714  -0.10783   0.00000  -0.08608  -0.08608   2.23105
   R22        2.32381  -0.08283   0.00000  -0.06710  -0.06710   2.25672
    A1        2.27087  -0.00457   0.00000  -0.01060  -0.01062   2.26026
    A2        1.96318  -0.00358   0.00000  -0.00831  -0.00832   1.95486
    A3        2.04898   0.00817   0.00000   0.01906   0.01905   2.06803
    A4        2.00012   0.00929   0.00000   0.02164   0.02164   2.02176
    A5        1.87054   0.00936   0.00000   0.02444   0.02394   1.89448
    A6        1.84057  -0.00867   0.00000  -0.03451  -0.03445   1.80611
    A7        1.94174  -0.00335   0.00000  -0.00729  -0.00823   1.93351
    A8        1.91380  -0.00573   0.00000  -0.01817  -0.01792   1.89587
    A9        1.92989   0.00730   0.00000   0.03548   0.03526   1.96515
   A10        1.96317   0.00074   0.00000  -0.00209  -0.00216   1.96101
   A11        1.97194   0.00566   0.00000   0.01520   0.01501   1.98695
   A12        1.87931  -0.00896   0.00000  -0.03161  -0.03154   1.84777
   A13        1.84522   0.00265   0.00000   0.01459   0.01433   1.85955
   A14        1.89658   0.00095   0.00000  -0.00102  -0.00091   1.89567
   A15        1.91942  -0.00048   0.00000   0.00677   0.00650   1.92592
   A16        1.95166   0.00010   0.00000  -0.00435  -0.00427   1.94740
   A17        1.91587  -0.01616   0.00000  -0.04335  -0.04338   1.87250
   A18        1.90957   0.00148   0.00000   0.00166   0.00153   1.91110
   A19        1.90935   0.00744   0.00000   0.02206   0.02197   1.93132
   A20        1.91341   0.00580   0.00000   0.01308   0.01288   1.92629
   A21        1.93804   0.00220   0.00000   0.00107   0.00123   1.93927
   A22        1.87708  -0.00035   0.00000   0.00673   0.00655   1.88363
   A23        1.96567   0.00813   0.00000   0.01894   0.01894   1.98461
   A24        2.04210   0.00457   0.00000   0.01066   0.01066   2.05275
   A25        1.96429   0.00077   0.00000   0.00181   0.00181   1.96610
   A26        2.27679  -0.00535   0.00000  -0.01245  -0.01245   2.26433
   A27        1.98947   0.01084   0.00000   0.02526   0.02526   2.01473
   A28        2.03983   0.00900   0.00000   0.02098   0.02098   2.06080
   A29        1.96703  -0.00314   0.00000  -0.00730  -0.00730   1.95973
   A30        2.27625  -0.00587   0.00000  -0.01367  -0.01367   2.26258
   A31        1.99362   0.01214   0.00000   0.02829   0.02829   2.02191
   A32        1.96879  -0.00348   0.00000  -0.00794  -0.00797   1.96082
   A33        2.03930   0.00916   0.00000   0.02150   0.02147   2.06077
   A34        2.27365  -0.00557   0.00000  -0.01281  -0.01285   2.26080
    D1       -3.12158  -0.00164   0.00000  -0.01015  -0.01014  -3.13172
    D2       -3.10825  -0.00199   0.00000  -0.01495  -0.01493  -3.12318
    D3        0.04991  -0.00331   0.00000  -0.02326  -0.02328   0.02663
    D4       -1.74665  -0.01051   0.00000  -0.05608  -0.05607  -1.80272
    D5        2.49822  -0.00409   0.00000  -0.02988  -0.02956   2.46865
    D6        0.36500   0.00243   0.00000  -0.00128  -0.00161   0.36340
    D7       -3.14088   0.00224   0.00000   0.00367   0.00387  -3.13700
    D8        1.04786   0.00362   0.00000   0.01693   0.01722   1.06508
    D9       -1.04081   0.00664   0.00000   0.03028   0.03068  -1.01013
   D10       -1.15138  -0.00584   0.00000  -0.03292  -0.03303  -1.18442
   D11        3.03735  -0.00445   0.00000  -0.01966  -0.01968   3.01767
   D12        0.94868  -0.00143   0.00000  -0.00630  -0.00622   0.94246
   D13        1.02318  -0.00387   0.00000  -0.02377  -0.02415   0.99903
   D14       -1.07127  -0.00248   0.00000  -0.01052  -0.01080  -1.08207
   D15        3.12324   0.00053   0.00000   0.00284   0.00266   3.12590
   D16       -2.36556   0.00587   0.00000   0.02247   0.02264  -2.34292
   D17        1.90892   0.00224   0.00000   0.02073   0.02053   1.92945
   D18       -0.24621  -0.00349   0.00000  -0.01025  -0.01022  -0.25643
   D19        1.25622   0.00395   0.00000   0.01788   0.01780   1.27401
   D20       -2.92660   0.00201   0.00000   0.00818   0.00823  -2.91837
   D21       -0.87444   0.00677   0.00000   0.03011   0.03025  -0.84419
   D22       -2.94244  -0.00310   0.00000  -0.01292  -0.01306  -2.95550
   D23       -0.84207  -0.00504   0.00000  -0.02262  -0.02263  -0.86470
   D24        1.21009  -0.00028   0.00000  -0.00070  -0.00061   1.20948
   D25       -0.80089  -0.00266   0.00000  -0.01468  -0.01482  -0.81571
   D26        1.29947  -0.00460   0.00000  -0.02438  -0.02438   1.27509
   D27       -2.93155   0.00016   0.00000  -0.00245  -0.00237  -2.93391
   D28       -2.63386   0.00215   0.00000   0.00634   0.00635  -2.62751
   D29        1.50780   0.00015   0.00000   0.00769   0.00758   1.51538
   D30       -0.61415   0.00004   0.00000   0.00269   0.00279  -0.61136
   D31        3.10727  -0.00163   0.00000  -0.00603  -0.00617   3.10110
   D32        1.00923   0.00298   0.00000   0.01074   0.01079   1.02003
   D33       -1.06245  -0.00162   0.00000  -0.00653  -0.00645  -1.06890
   D34        0.01187  -0.00056   0.00000  -0.00392  -0.00393   0.00794
   D35       -3.13388  -0.00022   0.00000  -0.00174  -0.00173  -3.13562
   D36        3.13654   0.00044   0.00000   0.00270   0.00269   3.13923
   D37       -0.07796   0.00013   0.00000   0.00098   0.00098  -0.07698
   D38        3.07557   0.00012   0.00000   0.00082   0.00082   3.07640
   D39       -3.12712  -0.00006   0.00000  -0.00031  -0.00031  -3.12743
   D40        2.90852  -0.00001   0.00000   0.00013   0.00003   2.90855
   D41       -0.28478   0.00184   0.00000   0.01301   0.01311  -0.27166
   D42        3.08112   0.00274   0.00000   0.01638   0.01629   3.09741
         Item               Value     Threshold  Converged?
 Maximum Force            0.107828     0.000450     NO 
 RMS     Force            0.029849     0.000300     NO 
 Maximum Displacement     0.204890     0.001800     NO 
 RMS     Displacement     0.065024     0.001200     NO 
 Predicted change in Energy=-5.511904D-02
 GradGradGradGradGradGradGradGradGradGradGradGradGradGradGradGradGradGrad

                          Input orientation:                          
 ---------------------------------------------------------------------
 Center     Atomic      Atomic             Coordinates (Angstroms)
 Number     Number       Type             X           Y           Z
 ---------------------------------------------------------------------
      1          8           0       -3.917274    1.074246   -1.495026
      2          7           0       -3.122831    0.817360   -0.657023
      3          8           0       -3.095590    1.146273    0.488245
      4          8           0       -2.101493    0.030254   -1.138531
      5          6           0       -1.112244   -0.346872   -0.192543
      6          6           0        0.141677    0.518997   -0.422952
      7          6           0        1.294083    0.206157    0.534491
      8          8           0        1.845133   -1.038797    0.138019
      9          7           0        2.931948   -1.425513    0.885809
     10          8           0        3.282055   -0.702621    1.766521
     11          8           0        3.381047   -2.464107    0.534731
     12          8           0       -0.269827    1.861785   -0.213437
     13          7           0        0.422104    2.812288   -0.933344
     14          8           0        1.344314    2.451609   -1.598002
     15          8           0       -0.010894    3.900730   -0.771163
     16          8           0       -0.811213   -1.677509   -0.544774
     17          7           0       -0.742938   -2.573092    0.497432
     18          8           0       -0.740035   -3.693971    0.126634
     19          8           0       -0.655744   -2.139098    1.606560
     20          1           0       -1.492278   -0.265114    0.810115
     21          1           0        0.448263    0.351428   -1.449404
     22          1           0        2.041172    0.987218    0.468262
     23          1           0        0.940567    0.168350    1.559382
 ---------------------------------------------------------------------
                    Distance matrix (angstroms):
                    1          2          3          4          5
     1  O    0.000000
     2  N    1.182954   0.000000
     3  O    2.147957   1.191875   0.000000
     4  O    2.124634   1.376414   2.209102   0.000000
     5  C    3.403562   2.369312   2.574221   1.419765   0.000000
     6  C    4.234706   3.286460   3.421060   2.404732   1.541148
     7  C    5.659573   4.615453   4.489453   3.789444   2.573875
     8  O    6.351151   5.362656   5.413680   4.283493   3.055178
     9  N    7.670007   6.638611   6.565314   5.617183   4.322245
    10  O    8.100944   7.014732   6.762156   6.161090   4.824350
    11  O    8.360942   7.381648   7.415108   6.251391   5.020087
    12  O    3.945448   3.070378   2.998208   2.750511   2.363953
    13  N    4.708130   4.077089   4.143753   3.761696   3.589332
    14  O    5.439857   4.848875   5.076324   4.236468   3.980137
    15  O    4.875735   4.382276   4.323018   4.414312   4.426048
    16  O    4.257082   3.403020   3.776142   2.221221   1.408999
    17  N    5.229663   4.300212   4.400992   3.361467   2.359768
    18  O    5.954873   5.161777   5.395124   4.162218   3.382821
    19  O    5.530190   4.466651   4.242304   3.785737   2.580163
    20  H    3.603910   2.446006   2.160144   2.062912   1.075376
    21  H    4.425207   3.687502   4.116449   2.588639   2.121911
    22  H    6.274166   5.287915   5.139263   4.545244   3.487191
    23  H    5.809362   4.673850   4.288850   4.068408   2.747496
                    6          7          8          9         10
     6  C    0.000000
     7  C    1.530558   0.000000
     8  O    2.375536   1.418012   0.000000
     9  N    3.644116   2.338455   1.374738   0.000000
    10  O    4.018472   2.509144   2.197675   1.191973   0.000000
    11  O    4.506615   3.389060   2.132586   1.184747   2.151729
    12  O    1.419970   2.397148   3.606932   4.718690   4.807524
    13  N    2.366077   3.115575   4.243075   5.250484   5.274768
    14  O    2.561653   3.097112   3.930334   4.870520   5.002402
    15  O    3.403035   4.130081   5.354473   6.306721   6.202757
    16  O    2.397390   3.024117   2.816085   4.015137   4.800764
    17  N    3.345245   3.446020   3.030074   3.869439   4.616255
    18  O    4.339188   4.417577   3.705829   4.382432   5.273956
    19  O    3.438062   3.232859   3.101880   3.728300   4.194677
    20  H    2.192052   2.839344   3.491219   4.574498   4.888802
    21  H    1.084287   2.161564   2.530590   3.844403   4.414020
    22  H    2.149785   1.082860   2.062094   2.605590   2.465933
    23  H    2.165832   1.084806   2.072611   2.638124   2.506803
                   11         12         13         14         15
    11  O    0.000000
    12  O    5.709815   0.000000
    13  N    6.225024   1.378583   0.000000
    14  O    5.732460   2.206890   1.192615   0.000000
    15  O    7.329514   2.129648   1.182581   2.149466   0.000000
    16  O    4.399899   3.595760   4.672294   4.775479   5.639903
    17  N    4.125593   4.516338   5.692693   5.830530   6.637439
    18  O    4.320003   5.585980   6.693693   6.714688   7.682263
    19  O    4.189287   4.412300   5.668253   5.945085   6.522953
    20  H    5.353569   2.658147   4.021804   4.607153   4.695657
    21  H    4.523854   2.079531   2.514524   2.288176   3.642578
    22  H    3.702882   2.563260   2.813673   2.626689   3.773023
    23  H    3.733053   2.734167   3.670544   3.917315   4.501931
                   16         17         18         19         20
    16  O    0.000000
    17  N    1.375836   0.000000
    18  O    2.126493   1.180622   0.000000
    19  O    2.205782   1.194202   2.148235   0.000000
    20  H    2.072301   2.446639   3.576321   2.201348   0.000000
    21  H    2.553668   3.709710   4.501245   4.093956   3.041587
    22  H    4.032756   4.519727   5.455764   4.282866   3.764369
    23  H    3.302030   3.387836   4.449125   2.806199   2.582253
                   21         22         23
    21  H    0.000000
    22  H    2.572748   0.000000
    23  H    3.054289   1.752832   0.000000
 Stoichiometry    C3H4N4O12
 Framework group  C1[X(C3H4N4O12)]
 Deg. of freedom    63
 Full point group                 C1      NOp   1
 Largest Abelian subgroup         C1      NOp   1
 Largest concise Abelian subgroup C1      NOp   1
                         Standard orientation:                         
 ---------------------------------------------------------------------
 Center     Atomic      Atomic             Coordinates (Angstroms)
 Number     Number       Type             X           Y           Z
 ---------------------------------------------------------------------
      1          8           0       -3.894626   -1.608204   -0.451128
      2          7           0       -2.915345   -1.333227    0.152839
      3          8           0       -2.768755   -1.165263    1.323679
      4          8           0       -1.823330   -1.190246   -0.672737
      5          6           0       -0.596417   -0.882164   -0.028142
      6          6           0       -0.297470    0.615712   -0.233412
      7          6           0        1.010651    1.079644    0.411718
      8          8           0        2.073433    0.562767   -0.371920
      9          7           0        3.319399    0.945251    0.065323
     10          8           0        3.376320    1.641715    1.030982
     11          8           0        4.192434    0.508587   -0.606063
     12          8           0       -1.374768    1.313460    0.373952
     13          7           0       -1.677801    2.536814   -0.184676
     14          8           0       -0.977593    2.942787   -1.060589
     15          8           0       -2.625247    3.036368    0.316611
     16          8           0        0.351846   -1.633412   -0.750432
     17          7           0        1.264451   -2.332877    0.005097
     18          8           0        1.860247   -3.127703   -0.632984
     19          8           0        1.378186   -2.044280    1.158308
     20          1           0       -0.631420   -1.157926    1.010686
     21          1           0       -0.268852    0.780875   -1.304664
     22          1           0        1.043466    2.161932    0.424364
     23          1           0        1.076123    0.731649    1.437105
 ---------------------------------------------------------------------
 Rotational constants (GHZ):           0.4648121           0.3007425           0.2016707
 Standard basis: 6-31G(d) (6D, 7F)
 There are   293 symmetry adapted cartesian basis functions of A   symmetry.
 There are   293 symmetry adapted basis functions of A   symmetry.
   293 basis functions,   548 primitive gaussians,   293 cartesian basis functions
    73 alpha electrons       73 beta electrons
       nuclear repulsion energy      1664.4326701374 Hartrees.
 NAtoms=   23 NActive=   23 NUniq=   23 SFac= 1.00D+00 NAtFMM=   60 NAOKFM=F Big=F
 Integral buffers will be    131072 words long.
 Raffenetti 1 integral format.
 Two-electron integral symmetry is turned on.
 One-electron integrals computed using PRISM.
 NBasis=   293 RedAO= T EigKep=  2.07D-03  NBF=   293
 NBsUse=   293 1.00D-06 EigRej= -1.00D+00 NBFU=   293
 Initial guess from the checkpoint file:  "C:\g16w\Scratch\Gau-26152.chk"
 B after Tr=     0.000000    0.000000    0.000000
         Rot=    0.999982   -0.003724   -0.000969    0.004706 Ang=  -0.70 deg.
 ExpMin= 1.61D-01 ExpMax= 5.48D+03 ExpMxC= 8.25D+02 IAcc=3 IRadAn=         5 AccDes= 0.00D+00
 Harris functional with IExCor=  205 and IRadAn=       5 diagonalized for initial guess.
 HarFok:  IExCor=  205 AccDes= 0.00D+00 IRadAn=         5 IDoV= 1 UseB2=F ITyADJ=14
 ICtDFT=  3500011 ScaDFX=  1.000000  1.000000  1.000000  1.000000
 FoFCou: FMM=F IPFlag=           0 FMFlag=      100000 FMFlg1=           0
         NFxFlg=           0 DoJE=T BraDBF=F KetDBF=T FulRan=T
         wScrn=  0.000000 ICntrl=       500 IOpCl=  0 I1Cent=   200000004 NGrid=           0
         NMat0=    1 NMatS0=      1 NMatT0=    0 NMatD0=    1 NMtDS0=    0 NMtDT0=    0
 Petite list used in FoFCou.
 Requested convergence on RMS density matrix=1.00D-08 within 128 cycles.
 Requested convergence on MAX density matrix=1.00D-06.
 Requested convergence on             energy=1.00D-06.
 No special actions if energy rises.
 Integral accuracy reduced to 1.0D-05 until final iterations.
 Initial convergence to 1.0D-05 achieved.  Increase integral accuracy.
 SCF Done:  E(RHF) =  -1231.35915695     A.U. after   15 cycles
            NFock= 15  Conv=0.69D-08     -V/T= 2.0030
 Calling FoFJK, ICntrl=      2127 FMM=F ISym2X=0 I1Cent= 0 IOpClX= 0 NMat=1 NMatS=1 NMatT=0.
 ***** Axes restored to original set *****
 -------------------------------------------------------------------
 Center     Atomic                   Forces (Hartrees/Bohr)
 Number     Number              X              Y              Z
 -------------------------------------------------------------------
      1        8           0.019379028   -0.005843286    0.021190806
      2        7          -0.009997144    0.003877345   -0.008748589
      3        8          -0.000638413   -0.008673859   -0.021904514
      4        8          -0.005235322    0.007931829    0.017157184
      5        6           0.000975309    0.010413883   -0.003001676
      6        6           0.002703754   -0.017497115   -0.008536667
      7        6          -0.003946575    0.011782225    0.008085376
      8        8           0.017837015   -0.002099718    0.015676436
      9        7          -0.001634354   -0.008367116   -0.006858145
     10        8          -0.006467788   -0.013758762   -0.017252284
     11        8          -0.009038366    0.024038339    0.009436010
     12        8           0.012738356    0.006958651   -0.014098883
     13        7          -0.005992204    0.009921843    0.003568396
     14        8          -0.018196180    0.005966309    0.012991722
     15        8           0.011172073   -0.025659858   -0.004739586
     16        8          -0.004102736   -0.001668224    0.019404684
     17        7           0.004735928   -0.015992504   -0.006359034
     18        8          -0.000820984    0.028911461    0.010644606
     19        8          -0.003673069   -0.006180525   -0.020397461
     20        1           0.000903211   -0.002491318   -0.004022306
     21        1          -0.000266001    0.005028473    0.003901903
     22        1          -0.002209326   -0.003907170   -0.002460729
     23        1           0.001773789   -0.002690902   -0.003677248
 -------------------------------------------------------------------
 Cartesian Forces:  Max     0.028911461 RMS     0.011308784

 GradGradGradGradGradGradGradGradGradGradGradGradGradGradGradGradGradGrad
 Berny optimization.
 Using GEDIIS/GDIIS optimizer.
 FormGI is forming the generalized inverse of G from B-inverse, IUseBI=4.
 Internal  Forces:  Max     0.030793612 RMS     0.008801209
 Search for a local minimum.
 Step number   2 out of a maximum of  108
 All quantities printed in internal units (Hartrees-Bohrs-Radians)
 Mixed Optimization -- RFO/linear search
 Update second derivatives using D2CorX and points    1    2
 DE= -5.65D-02 DEPred=-5.51D-02 R= 1.03D+00
 TightC=F SS=  1.41D+00  RLast= 3.21D-01 DXNew= 5.0454D-01 9.6176D-01
 Trust test= 1.03D+00 RLast= 3.21D-01 DXMaxT set to 5.05D-01
 ITU=  1  0
 Use linear search instead of GDIIS.
     Eigenvalues ---    0.00230   0.00241   0.01033   0.01059   0.01132
     Eigenvalues ---    0.01163   0.01176   0.01225   0.01264   0.01392
     Eigenvalues ---    0.02891   0.02906   0.02930   0.02934   0.04175
     Eigenvalues ---    0.04896   0.05100   0.05296   0.05827   0.06935
     Eigenvalues ---    0.07383   0.09621   0.11040   0.13579   0.16671
     Eigenvalues ---    0.18380   0.19388   0.19481   0.22041   0.24500
     Eigenvalues ---    0.24991   0.24999   0.25000   0.25000   0.25000
     Eigenvalues ---    0.25000   0.25000   0.25000   0.25000   0.25000
     Eigenvalues ---    0.25440   0.26916   0.28571   0.33803   0.33966
     Eigenvalues ---    0.34065   0.34560   0.39650   0.40299   0.40839
     Eigenvalues ---    0.41752   0.42199   0.42679   0.43622   0.43910
     Eigenvalues ---    0.90205   0.90949   0.91173   0.91389   0.91736
     Eigenvalues ---    0.92217   0.92482   0.92698
 RFO step:  Lambda=-3.62804922D-03 EMin= 2.29992453D-03
 Quartic linear search produced a step of  0.35171.
 Iteration  1 RMS(Cart)=  0.07349359 RMS(Int)=  0.00300321
 Iteration  2 RMS(Cart)=  0.00370622 RMS(Int)=  0.00011450
 Iteration  3 RMS(Cart)=  0.00000789 RMS(Int)=  0.00011437
 Iteration  4 RMS(Cart)=  0.00000000 RMS(Int)=  0.00011437
 Variable       Old X    -DE/DX   Delta X   Delta X   Delta X     New X
                                 (Linear)    (Quad)   (Total)
    R1        2.23546  -0.02929  -0.02930  -0.00174  -0.03104   2.20442
    R2        2.25232  -0.02346  -0.02464   0.00002  -0.02463   2.22769
    R3        2.60105  -0.01588  -0.02388  -0.00835  -0.03223   2.56882
    R4        2.68297  -0.00829  -0.01292  -0.00538  -0.01830   2.66467
    R5        2.91235  -0.00643  -0.01200  -0.00742  -0.01942   2.89292
    R6        2.66262  -0.00644  -0.01556   0.00577  -0.00979   2.65283
    R7        2.03217  -0.00426  -0.01188   0.00534  -0.00655   2.02562
    R8        2.89233  -0.00195  -0.00607   0.00294  -0.00314   2.88920
    R9        2.68335  -0.00292  -0.01020   0.00803  -0.00217   2.68119
   R10        2.04901  -0.00455  -0.00987   0.00031  -0.00956   2.03945
   R11        2.67965   0.00015  -0.00309   0.00579   0.00270   2.68235
   R12        2.04631  -0.00419  -0.00937   0.00085  -0.00852   2.03779
   R13        2.04999  -0.00396  -0.00850   0.00014  -0.00836   2.04163
   R14        2.59788  -0.02207  -0.02996  -0.01843  -0.04839   2.54949
   R15        2.25250  -0.02299  -0.02565   0.00191  -0.02374   2.22876
   R16        2.23885  -0.02730  -0.02849  -0.00004  -0.02853   2.21031
   R17        2.60514  -0.01944  -0.02609  -0.01642  -0.04252   2.56263
   R18        2.25371  -0.02312  -0.02480   0.00062  -0.02418   2.22953
   R19        2.23475  -0.02836  -0.02909  -0.00056  -0.02965   2.20510
   R20        2.59995  -0.01658  -0.02267  -0.01222  -0.03488   2.56507
   R21        2.23105  -0.03079  -0.03028  -0.00241  -0.03269   2.19836
   R22        2.25672  -0.02146  -0.02360   0.00140  -0.02219   2.23452
    A1        2.26026   0.00029  -0.00373   0.00947   0.00569   2.26595
    A2        1.95486   0.00189  -0.00293   0.01628   0.01330   1.96816
    A3        2.06803  -0.00218   0.00670  -0.02564  -0.01899   2.04904
    A4        2.02176   0.00832   0.00761   0.02832   0.03592   2.05768
    A5        1.89448   0.00112   0.00842  -0.01023  -0.00200   1.89247
    A6        1.80611  -0.00165  -0.01212   0.02026   0.00816   1.81427
    A7        1.93351  -0.00081  -0.00289  -0.00075  -0.00396   1.92955
    A8        1.89587  -0.00091  -0.00630   0.01058   0.00435   1.90023
    A9        1.96515   0.00281   0.01240  -0.00893   0.00340   1.96856
   A10        1.96101  -0.00086  -0.00076  -0.00861  -0.00939   1.95162
   A11        1.98695   0.00192   0.00528   0.00091   0.00588   1.99283
   A12        1.84777  -0.00472  -0.01109  -0.01730  -0.02831   1.81946
   A13        1.85955   0.00223   0.00504   0.01996   0.02466   1.88422
   A14        1.89567   0.00110  -0.00032   0.00016  -0.00015   1.89552
   A15        1.92592  -0.00019   0.00228   0.00625   0.00814   1.93405
   A16        1.94740  -0.00052  -0.00150  -0.01118  -0.01244   1.93496
   A17        1.87250  -0.00476  -0.01526   0.00067  -0.01463   1.85787
   A18        1.91110  -0.00003   0.00054  -0.00244  -0.00211   1.90900
   A19        1.93132   0.00300   0.00773   0.00751   0.01512   1.94643
   A20        1.92629   0.00121   0.00453  -0.01087  -0.00649   1.91980
   A21        1.93927  -0.00030   0.00043  -0.01087  -0.01030   1.92898
   A22        1.88363   0.00092   0.00230   0.01572   0.01785   1.90148
   A23        1.98461   0.00902   0.00666   0.03401   0.04067   2.02528
   A24        2.05275  -0.00135   0.00375  -0.01509  -0.01135   2.04141
   A25        1.96610   0.00278   0.00064   0.01349   0.01412   1.98022
   A26        2.26433  -0.00143  -0.00438   0.00161  -0.00277   2.26156
   A27        2.01473   0.00821   0.00889   0.02501   0.03390   2.04863
   A28        2.06080  -0.00250   0.00738  -0.02878  -0.02141   2.03939
   A29        1.95973   0.00263  -0.00257   0.01942   0.01685   1.97658
   A30        2.26258  -0.00013  -0.00481   0.00945   0.00463   2.26721
   A31        2.02191   0.00767   0.00995   0.01990   0.02986   2.05177
   A32        1.96082   0.00277  -0.00280   0.02100   0.01804   1.97886
   A33        2.06077  -0.00334   0.00755  -0.03333  -0.02593   2.03484
   A34        2.26080   0.00064  -0.00452   0.01329   0.00862   2.26943
    D1       -3.13172  -0.00113  -0.00357  -0.01544  -0.01900   3.13247
    D2       -3.12318  -0.00170  -0.00525  -0.07098  -0.07622   3.08378
    D3        0.02663  -0.00263  -0.00819  -0.08384  -0.09204  -0.06541
    D4       -1.80272  -0.00448  -0.01972  -0.05600  -0.07572  -1.87844
    D5        2.46865  -0.00312  -0.01040  -0.07349  -0.08378   2.38487
    D6        0.36340  -0.00072  -0.00056  -0.07474  -0.07542   0.28798
    D7       -3.13700  -0.00049   0.00136  -0.08891  -0.08756   3.05863
    D8        1.06508   0.00019   0.00606  -0.07811  -0.07204   0.99304
    D9       -1.01013   0.00204   0.01079  -0.06640  -0.05531  -1.06544
   D10       -1.18442  -0.00231  -0.01162  -0.06513  -0.07686  -1.26128
   D11        3.01767  -0.00163  -0.00692  -0.05432  -0.06134   2.95632
   D12        0.94246   0.00022  -0.00219  -0.04262  -0.04461   0.89784
   D13        0.99903  -0.00213  -0.00849  -0.07465  -0.08335   0.91568
   D14       -1.08207  -0.00145  -0.00380  -0.06385  -0.06783  -1.14991
   D15        3.12590   0.00040   0.00094  -0.05214  -0.05111   3.07480
   D16       -2.34292   0.00166   0.00796   0.00389   0.01194  -2.33098
   D17        1.92945   0.00157   0.00722   0.00122   0.00835   1.93780
   D18       -0.25643  -0.00076  -0.00360   0.01094   0.00735  -0.24908
   D19        1.27401   0.00237   0.00626   0.00422   0.01042   1.28444
   D20       -2.91837   0.00102   0.00290  -0.00979  -0.00688  -2.92524
   D21       -0.84419   0.00396   0.01064   0.01263   0.02340  -0.82079
   D22       -2.95550  -0.00162  -0.00459  -0.01679  -0.02151  -2.97701
   D23       -0.86470  -0.00297  -0.00796  -0.03081  -0.03881  -0.90351
   D24        1.20948  -0.00003  -0.00021  -0.00839  -0.00853   1.20095
   D25       -0.81571  -0.00166  -0.00521  -0.02659  -0.03189  -0.84761
   D26        1.27509  -0.00302  -0.00858  -0.04061  -0.04919   1.22590
   D27       -2.93391  -0.00007  -0.00083  -0.01818  -0.01892  -2.95283
   D28       -2.62751   0.00066   0.00223   0.00470   0.00688  -2.62063
   D29        1.51538   0.00051   0.00266   0.01360   0.01613   1.53151
   D30       -0.61136   0.00034   0.00098   0.01284   0.01401  -0.59735
   D31        3.10110  -0.00103  -0.00217  -0.01112  -0.01335   3.08775
   D32        1.02003   0.00119   0.00380  -0.00244   0.00131   1.02133
   D33       -1.06890  -0.00057  -0.00227  -0.00796  -0.01013  -1.07902
   D34        0.00794  -0.00055  -0.00138  -0.02477  -0.02616  -0.01822
   D35       -3.13562  -0.00033  -0.00061  -0.02260  -0.02319   3.12438
   D36        3.13923   0.00026   0.00095   0.00262   0.00356  -3.14039
   D37       -0.07698   0.00023   0.00034   0.01137   0.01172  -0.06526
   D38        3.07640   0.00005   0.00029   0.00424   0.00452   3.08092
   D39       -3.12743  -0.00023  -0.00011  -0.00856  -0.00866  -3.13610
   D40        2.90855   0.00042   0.00001   0.05874   0.05893   2.96747
   D41       -0.27166   0.00208   0.00461   0.08255   0.08699  -0.18468
   D42        3.09741   0.00179   0.00573   0.02597   0.03185   3.12926
         Item               Value     Threshold  Converged?
 Maximum Force            0.030794     0.000450     NO 
 RMS     Force            0.008801     0.000300     NO 
 Maximum Displacement     0.309964     0.001800     NO 
 RMS     Displacement     0.073526     0.001200     NO 
 Predicted change in Energy=-8.071521D-03
 GradGradGradGradGradGradGradGradGradGradGradGradGradGradGradGradGradGrad

                          Input orientation:                          
 ---------------------------------------------------------------------
 Center     Atomic      Atomic             Coordinates (Angstroms)
 Number     Number       Type             X           Y           Z
 ---------------------------------------------------------------------
      1          8           0       -3.859960    1.166336   -1.430421
      2          7           0       -3.122263    0.813085   -0.598671
      3          8           0       -3.161912    0.982247    0.567298
      4          8           0       -2.079377    0.093705   -1.091356
      5          6           0       -1.082524   -0.327077   -0.187170
      6          6           0        0.177659    0.506383   -0.433840
      7          6           0        1.310958    0.236141    0.556176
      8          8           0        1.853771   -1.028937    0.210145
      9          7           0        2.921309   -1.432248    0.929772
     10          8           0        3.315160   -0.694607    1.761504
     11          8           0        3.320311   -2.487080    0.619605
     12          8           0       -0.254046    1.848261   -0.272431
     13          7           0        0.391427    2.801490   -0.989149
     14          8           0        1.308704    2.447905   -1.641492
     15          8           0       -0.062249    3.867689   -0.851205
     16          8           0       -0.827714   -1.656550   -0.559020
     17          7           0       -0.763830   -2.584029    0.430005
     18          8           0       -0.734364   -3.678093    0.035698
     19          8           0       -0.735434   -2.174219    1.538813
     20          1           0       -1.436009   -0.256488    0.822316
     21          1           0        0.502583    0.326374   -1.447130
     22          1           0        2.064447    1.000894    0.454922
     23          1           0        0.953352    0.228819    1.575632
 ---------------------------------------------------------------------
                    Distance matrix (angstroms):
                    1          2          3          4          5
     1  O    0.000000
     2  N    1.166529   0.000000
     3  O    2.124156   1.178844   0.000000
     4  O    2.106175   1.359359   2.170834   0.000000
     5  C    3.389706   2.372728   2.570488   1.410081   0.000000
     6  C    4.210828   3.318240   3.518729   2.386806   1.530870
     7  C    5.616958   4.617357   4.534685   3.772138   2.568761
     8  O    6.336986   5.367322   5.415671   4.292305   3.045044
     9  N    7.636017   6.625891   6.554903   5.605387   4.301121
    10  O    8.070554   7.020255   6.796354   6.153152   4.824109
    11  O    8.313022   7.340439   7.352427   6.224506   4.970055
    12  O    3.848192   3.066707   3.148144   2.661003   2.329322
    13  N    4.576324   4.056137   4.284669   3.667072   3.550160
    14  O    5.329358   4.836691   5.197433   4.162211   3.941262
    15  O    4.696319   4.331058   4.466076   4.285958   4.367833
    16  O    4.233502   3.371295   3.698693   2.216628   1.403816
    17  N    5.206961   4.261545   4.299764   3.348950   2.361419
    18  O    5.948726   5.125931   5.281511   4.160021   3.376417
    19  O    5.453285   4.380614   4.098160   3.723903   2.551748
    20  H    3.602053   2.450845   2.139682   2.049072   1.071912
    21  H    4.442701   3.754501   4.232802   2.616721   2.127689
    22  H    6.219364   5.295969   5.227600   4.515002   3.475516
    23  H    5.751805   4.656136   4.303463   4.040858   2.749779
                    6          7          8          9         10
     6  C    0.000000
     7  C    1.528898   0.000000
     8  O    2.362472   1.419439   0.000000
[...]
 88,0.02304871,0.03270454,0.11216365,-0.21366590,-0.10254128,-0.1570275
 5,0.24709365,0.00058872,-0.00010578,0.00061359,-0.00150354,-0.00019697
 ,-0.00099007,0.00023360,-0.00004097,0.00042990,0.00082620,0.00088300,0
 .00053651,-0.00171034,-0.00066525,0.00048794,0.00538397,-0.01377013,-0
 .00675449,0.00079240,0.00030764,0.00113998,-0.00177913,0.00122500,-0.0
 0029438,0.00122950,-0.00048666,0.00010876,-0.00040103,0.00013298,-0.00
 002889,-0.00051070,0.00064658,0.00010247,0.06486467,0.02798447,-0.0370
 5336,0.25783592,-0.08455725,-0.37012244,-0.37982951,0.13770705,0.41211
 382,0.00029469,-0.00032855,0.00021985,-0.00042117,0.00069555,-0.000329
 33,0.00012253,-0.00018029,0.00016458,0.00051675,-0.00038793,0.00004388
 ,-0.00049156,0.00035701,-0.00064185,0.00170740,0.00256419,0.00646830,-
 0.00077295,-0.00193487,-0.00087192,0.00083114,0.00004591,0.00023067,-0
 .00013680,-0.00055035,0.00000056,0.00010629,0.00017647,0.00000691,0.00
 009215,0.00005024,0.00000687,0.02969745,-0.03199204,-0.00145248,-0.195
 80037,0.18303630,0.05314960,-0.02002181,0.08705410,0.05313611,0.183991
 47,-0.00239880,0.00095247,-0.00134177,0.00576230,-0.00110700,0.0012357
 0,-0.00161715,0.00013628,-0.00021374,-0.00413700,-0.00007417,-0.000532
 54,0.00692383,-0.00021309,0.00086460,-0.00742946,0.01046404,0.01017996
 ,-0.00310393,0.00002691,-0.00210441,0.00359364,-0.00290148,0.00231144,
 -0.00417766,0.00257541,-0.00244061,0.00136006,-0.00042489,0.00104402,0
 .00136567,-0.00176111,0.00026966,-0.00372054,-0.12732151,0.02052996,0.
 16078933,-0.68303951,-0.09770783,0.08689635,-0.05044076,-0.07570937,-0
 .23750294,0.85652792,0.00027501,-0.00010904,0.00031520,-0.00054114,0.0
 0007187,-0.00058092,0.00006532,-0.00006653,0.00027468,0.00033767,0.000
 16225,0.00017557,-0.00177406,0.00108945,0.00091433,0.00728800,-0.00373
 549,-0.00258754,0.00095052,0.00008667,0.00025813,-0.00057162,0.0000675
 6,0.00011904,0.00021072,-0.00001743,-0.00019731,-0.00011395,0.00003371
 ,0.00007960,-0.00012281,0.00016390,0.00006800,-0.00465822,0.05204640,0
 .02561327,0.05494768,-0.12017190,-0.16497397,0.05343167,-0.07639618,-0
 .00079430,-0.10978298,0.14451532,0.14127897,-0.00123684,0.00031693,-0.
 00274630,0.00392709,-0.00247931,0.00743652,-0.00304460,0.00537093,-0.0
 0157521,-0.00373390,0.03230984,-0.00630752,-0.06871385,0.00783785,0.01
 529057,0.01146686,-0.02327971,-0.00704804,0.00217912,0.00419719,0.0001
 3755,-0.00894222,0.00081499,-0.00302039,0.00265959,-0.00379368,0.00222
 835,-0.00147451,0.00002453,-0.00157135,-0.00060272,0.00114752,-0.00021
 703,-0.00538241,-0.00729736,0.00425191,0.00124276,0.00128204,-0.003447
 91,-0.00039801,0.00000223,0.00075573,-0.00000513,-0.00204009,0.0006649
 4,0.08946065,0.00703825,0.00112927,0.00110103,-0.02389014,-0.00838921,
 0.00726441,0.00513016,0.00436027,-0.00529093,0.04240519,-0.04936492,0.
 01720517,-0.00362000,-0.21219437,-0.08555449,0.01220537,-0.03288619,-0
 .00635708,0.00314954,-0.00314920,0.00152265,-0.00268429,0.00431127,-0.
 00147199,0.00104275,-0.00548748,0.00045681,-0.00029558,0.00163007,0.00
 012507,-0.00062452,0.00331474,0.00016130,-0.01056659,-0.01114841,0.005
 96968,0.00426250,0.00633693,-0.00768664,-0.00216555,-0.00110290,0.0022
 5775,-0.00036669,-0.00440502,0.00134789,-0.03394412,0.58900337,-0.0029
 6122,-0.00088487,-0.00059334,0.01312030,0.00212109,-0.00319398,-0.0023
 7321,-0.00124965,0.00310555,-0.02162373,0.04893399,0.00154337,0.014672
 31,-0.04726116,-0.14731618,-0.00440371,0.00704507,0.00571110,0.0002402
 7,0.00076974,-0.00197870,0.00091463,-0.00127601,0.00150223,-0.00125198
 ,0.00230851,-0.00140230,0.00064746,-0.00035463,0.00082430,0.00037042,-
 0.00115407,0.00026347,0.00372389,0.00498477,-0.00004414,-0.00104944,-0
 .00170012,0.00215898,0.00028875,0.00031588,-0.00021807,0.00000515,0.00
 152399,-0.00039424,0.01177901,-0.03196236,0.43403590,-0.00071919,-0.00
 142753,0.00209802,0.00637861,0.00652798,-0.00792983,-0.00122861,-0.004
 51516,0.00396594,-0.00805582,0.01001391,-0.00257941,-0.01329852,-0.005
 87570,-0.00364271,0.00370108,-0.00500108,0.00025529,0.00018628,-0.0044
 8598,0.00087915,0.00223815,0.00132126,-0.00029584,-0.00599072,0.000530
 14,-0.00212009,0.00141502,0.00051744,0.00132411,0.00125203,0.00003497,
 0.00008893,-0.00194918,-0.00096221,-0.00005401,0.00051103,-0.00053781,
 -0.00074631,-0.00041664,0.00019590,0.00014996,-0.00010948,-0.00000618,
 0.00020827,-0.07597647,0.00538069,0.00150180,0.35622383,-0.00677485,0.
 00130174,-0.00423228,0.01911831,-0.00082666,0.00477993,-0.00595661,0.0
 0000243,-0.00143189,-0.01253570,0.00280781,-0.00576511,0.00575013,-0.0
 5921113,0.04677302,-0.00456074,-0.00736046,-0.00076061,-0.00511467,0.0
 0159112,0.00118531,0.00921331,-0.00595570,0.00125511,-0.00932483,0.018
 18760,0.00048755,0.00181726,-0.00431505,-0.00090201,0.00199821,-0.0094
 2566,-0.00105799,0.00333988,0.00719861,-0.00275190,-0.00296804,-0.0078
 7082,0.00454692,0.00151740,0.00206272,-0.00166343,0.00015911,0.0039312
 2,-0.00071161,0.00158530,-0.16731854,-0.00761455,0.10634645,1.20197464
 ,0.00400017,0.00048292,0.00009979,-0.01650076,-0.00004925,0.00499303,0
 .00423508,-0.00024515,-0.00476377,0.01894892,-0.01604308,-0.00061504,-
 0.01653682,0.05775702,0.03688574,0.00976758,-0.00425078,-0.00080337,0.
 00073217,-0.00153384,0.00759586,0.00034342,0.00283921,-0.00485605,-0.0
 0171605,0.00009908,0.00650811,-0.00142267,-0.00091924,-0.00371127,-0.0
 0022209,-0.00030205,-0.00172577,-0.00556808,-0.00717572,0.00162268,0.0
 0166167,0.00348484,-0.00297873,-0.00094221,-0.00087091,0.00049451,-0.0
 0000569,-0.00278638,0.00049003,-0.00680037,0.00206065,-0.21891842,0.11
 076356,0.29252427,0.96674820,0.00049583,0.00022374,-0.00006941,-0.0021
 0652,-0.00139044,0.00096171,0.00056271,0.00089283,-0.00051211,0.002311
 41,-0.00215076,0.00083671,0.00574356,0.00317380,-0.00004104,-0.0007643
 9,0.00117691,0.00033071,-0.00017830,0.00038229,-0.00012086,0.00010059,
 -0.00045221,0.00006970,0.00054616,0.00104489,0.00037334,-0.00021472,-0
 .00032394,-0.00026560,-0.00018491,-0.00056000,-0.00009198,0.00036130,0
 .00015551,-0.00004685,-0.00005529,0.00031557,0.00007638,0.00004357,-0.
 00010067,0.00000348,0.00002368,-0.00007264,-0.00002857,0.02530271,-0.0
 0665175,0.00094435,-0.13224411,-0.07508423,-0.02237145,0.06286206,0.00
 344774,-0.00024316,0.00148766,-0.01083594,-0.00140247,-0.00020447,0.00
 294088,0.00131761,-0.00047233,0.00890372,-0.00573238,0.00374867,-0.008
 32885,0.01635628,0.00666489,0.00385934,0.00075431,-0.00060660,0.002137
 82,-0.00209823,-0.00142660,-0.00357588,0.00306866,-0.00018360,0.003763
 37,-0.00854544,-0.00163457,-0.00044808,0.00236367,0.00127423,-0.000844
 58,0.00461900,0.00076418,-0.00235358,-0.00402202,0.00176751,0.00165607
 ,0.00383149,-0.00281359,-0.00084730,-0.00094227,0.00099068,-0.00011109
 ,-0.00200350,0.00047655,-0.00420301,-0.12205440,0.03148547,-0.07368182
 ,-0.73812010,-0.13517706,0.10576060,0.92428305,-0.00047243,-0.00009546
 ,0.00018655,0.00234375,0.00001411,-0.00126364,-0.00051203,-0.00000285,
 0.00092525,-0.00288726,0.00270958,0.00025661,0.00385346,-0.00784066,-0
 .00778513,-0.00186007,0.00129562,0.00027784,0.00020333,0.00013469,-0.0
 0167856,-0.00051825,0.00000886,0.00077108,0.00052856,-0.00123243,-0.00
 148569,0.00021430,0.00047578,0.00086571,-0.00003088,0.00065965,0.00046
 263,0.00098309,0.00112671,-0.00020373,-0.00017792,-0.00037160,0.000365
 18,0.00011923,0.00008977,-0.00001086,-0.00001168,0.00040273,-0.0000563
 0,0.00280839,0.07554976,0.02143794,-0.02451824,-0.16709635,-0.19793378
 ,0.04187435,0.20481442,0.22102327,-0.00023599,0.00043837,-0.00078518,-
 0.00032717,-0.00116414,0.00196904,0.00031487,0.00085863,-0.00112167,0.
 00057840,-0.00031480,-0.00059229,0.00005770,-0.00076080,-0.00172775,-0
 .00142169,0.00072985,-0.00134381,-0.00069372,0.00111100,-0.00191995,-0
 .00308096,-0.00168695,0.00190773,0.00348202,-0.00143450,-0.00041589,-0
 .00043627,0.00025396,0.00020580,-0.00052032,0.00060864,0.00028430,0.00
 056930,-0.00017842,0.00032420,-0.00023415,0.00047387,0.00005719,0.0002
 4957,-0.00012293,-0.00001280,0.00008186,-0.00019813,-0.00004988,0.0288
 4035,0.00486984,-0.01320126,-0.13350221,-0.03044663,-0.07838247,0.0377
 7561,-0.02614963,-0.02168199,0.06893991,0.00171176,-0.00042122,0.00109
 413,-0.00469628,-0.00038210,-0.00174392,0.00129050,0.00044210,0.000632
 96,0.00161651,0.00084259,0.00537736,0.00408420,-0.00651737,-0.00406023
 ,0.00004026,0.00259933,-0.00011203,0.00025465,-0.00175092,-0.00208980,
 -0.00267952,0.00123623,0.00025834,0.00293320,-0.00512628,-0.00045129,-
 0.00039602,0.00133627,0.00054054,-0.00066698,0.00273312,0.00037658,-0.
 00022762,-0.00115769,0.00066680,0.00070431,0.00215228,-0.00105505,-0.0
 0036201,-0.00056603,0.00048431,-0.00004628,-0.00088272,0.00015102,0.00
 618815,0.03213411,0.03411748,-0.03484137,-0.23963867,-0.17798967,-0.02
 637677,-0.07321906,-0.11289103,0.05228720,0.28795146,-0.00108781,-0.00
 036456,0.00074253,0.00664179,0.00034514,-0.00349925,-0.00152403,-0.000
 54995,0.00271348,-0.00566892,0.00542557,0.00093182,0.00230766,-0.02386
 668,-0.01137636,-0.00325290,0.00078155,0.00009912,0.00005528,0.0005024
 0,-0.00371275,-0.00089765,-0.00046236,0.00170133,0.00182953,-0.0021927
 9,-0.00330916,0.00043947,0.00095445,0.00193652,-0.00019166,0.00123553,
 0.00094671,0.00166601,0.00200515,-0.00006945,-0.00036694,-0.00083026,0
 .00048501,0.00023109,0.00021937,0.00006295,-0.00002364,0.00076153,-0.0
 0005790,-0.01488270,0.03054894,-0.09765522,-0.07821281,-0.15560337,-0.
 58102734,-0.02200348,-0.11204951,-0.03764684,0.11560710,0.24572588,0.7
 2834436,-0.00038870,-0.00022436,0.00123713,0.00595647,0.00109819,-0.00
 329766,-0.00706546,-0.00158550,0.00064658,0.00279467,-0.00025026,-0.03
 740603,-0.10559548,0.01795641,0.11299951,-0.00805165,0.00461396,0.0309
 7453,0.00150914,0.00038107,0.00142323,0.00020243,-0.00010456,-0.000361
 74,-0.00008893,0.00004830,0.00009596,-0.00002978,-0.00001385,-0.000087
 33,0.00000673,-0.00001678,-0.00002501,0.00098544,0.00165422,-0.0010564
 4,-0.00095747,0.00008082,0.00104984,0.00044925,-0.00093381,-0.00062973
 ,0.00021121,-0.00022775,-0.00018135,0.00305468,-0.00073234,-0.00015947
 ,0.00173295,0.00139366,0.00115972,-0.00031104,-0.00102828,-0.00052006,
 -0.00038639,0.00006639,-0.00122378,0.11068693,0.00092660,-0.00034919,0
 .00046589,-0.00320068,-0.00034717,0.00025091,-0.00056198,0.00029226,-0
 .00090169,0.00170079,0.00369309,0.02136004,0.01096494,-0.07006651,-0.0
 4156311,-0.00528975,0.00595315,0.01624933,0.00074936,-0.00011667,0.000
 14912,0.00015291,0.00005074,-0.00007737,0.00000858,-0.00011954,-0.0000
 8371,0.00001414,0.00007324,0.00005917,-0.00001245,0.00009202,0.0000324
 2,0.00027374,0.00141244,0.00010453,-0.00042281,0.00052782,0.00069204,0
 .00023913,-0.00073833,-0.00040127,0.00017202,-0.00022136,-0.00019638,0
 .01544474,-0.02644384,-0.03964955,-0.00032979,0.00222675,-0.01113778,0
 .00019895,0.00072137,0.00198737,0.00079732,-0.00161363,0.00689416,-0.0
 1924437,0.08641233,-0.00001332,-0.00072873,0.00148767,0.00383733,0.002
 32980,-0.00526917,0.00227459,-0.00075543,0.00436503,-0.00346911,0.0038
 5542,-0.02625541,0.09885264,-0.05219025,-0.34201291,0.00173178,0.00059
 815,0.00146188,0.00056875,-0.00011546,0.00104334,-0.00030161,0.0002562
 3,-0.00024226,0.00035384,-0.00025324,0.00029278,-0.00011119,0.00004281
 ,-0.00013087,-0.00011673,0.00017815,-0.00003501,-0.00023263,-0.0003613
 2,0.00049674,0.00021987,0.00147473,-0.00049665,-0.00036319,-0.00051154
 ,0.00037398,0.00003637,-0.00051898,0.00002254,0.00228459,-0.00649191,-
 0.00045785,-0.00017892,-0.00081905,-0.00293097,0.00000741,0.00005519,0
 .00037665,-0.00157855,0.00843334,-0.00206457,-0.10297454,0.04618754,0.
 36927107,0.00027783,0.00018283,-0.00026964,-0.00110593,-0.00093926,0.0
 0127506,-0.00021430,0.00047556,-0.00127750,0.00298086,-0.00001676,0.00
 073583,-0.00985362,0.00413338,0.03515252,-0.08194188,0.00974415,0.0670
 5305,0.01064490,-0.00257426,-0.03195750,0.00155736,-0.00123235,0.00142
 411,-0.00041624,-0.00101044,-0.00086358,-0.00023751,0.00073119,0.00057
 209,0.00003008,0.00034440,0.00019053,-0.00259685,0.00395107,0.00773338
 ,0.00146334,-0.00106993,0.00051629,-0.00147680,-0.00359068,0.00020125,
 -0.00033565,0.00063617,0.00020985,0.00112279,0.00097287,-0.00179220,0.
 00036041,0.00021430,0.00032217,-0.00013706,0.00001620,-0.00005578,0.00
 022487,-0.00025849,-0.00027424,-0.00418734,-0.00255160,-0.00089873,0.0
 8787344,-0.00010128,0.00014591,-0.00023389,0.00006063,-0.00057550,0.00
 088757,-0.00045130,0.00016400,-0.00061121,0.00164653,0.00020189,-0.000
 55002,-0.00567153,0.00482240,0.02074642,0.00515498,-0.06433761,-0.0212
 6791,-0.00405344,0.00356515,0.01030980,-0.00050199,0.00072752,0.000178
 58,0.00027330,0.00046650,0.00042881,0.00005336,-0.00040882,-0.00033260
 ,-0.00005150,-0.00015740,-0.00012105,0.01248449,-0.02244220,-0.0417285
 1,0.00547736,0.00362445,-0.00714547,-0.00410181,-0.00290879,0.00424153
 ,-0.00104034,0.00082450,0.00139463,0.00091383,0.00128973,-0.00054709,0
 .00038246,0.00066696,0.00097788,-0.00010741,-0.00031029,-0.00021994,-0
 .00000636,-0.00048528,-0.00056380,-0.00298029,-0.00161907,-0.00065392,
 -0.00956157,0.07701763,-0.00033398,0.00006426,-0.00024829,0.00128052,0
 .00008469,0.00035967,-0.00059385,-0.00018613,0.00016221,-0.00132837,0.
 00000865,0.00079995,0.00222899,0.00056093,-0.00306156,0.06861571,-0.03
 485968,-0.35679087,0.00458618,-0.00097774,-0.01902919,0.00117176,-0.00
 060550,0.00123441,-0.00124644,0.00020618,-0.00049889,0.00038021,0.0003
 6355,0.00054694,0.00019744,-0.00003864,0.00006189,0.00100849,-0.006224
 65,0.00086760,0.00375798,-0.00066908,-0.00314173,0.00028881,0.00646197
 ,0.00099925,-0.00076961,0.00056921,0.00060221,-0.00015830,0.00008884,0
 .00081484,-0.00011301,0.00064285,-0.00093729,-0.00000642,-0.00016376,0
 .00014138,0.00019011,-0.00000036,0.00046176,-0.00045095,-0.00008109,0.
 00054855,-0.07610367,0.03449618,0.37556181,-0.00067412,0.00013282,-0.0
 0022585,0.00108320,0.00011062,-0.00047752,-0.00028621,-0.00009212,0.00
 015137,-0.00254602,-0.00059811,0.00016878,-0.00010258,0.00330526,-0.00
 352054,-0.02334282,-0.01784106,0.00514266,-0.25116416,-0.15111292,0.04
 271182,0.01450307,0.01546430,-0.00332431,0.00293840,-0.00139007,-0.000
 13936,-0.00164076,0.00294912,-0.00127990,-0.00085254,0.00073541,0.0007
 4408,0.00290770,-0.00006183,0.00105044,-0.00284542,0.00246425,0.000874
 00,0.00190019,-0.00114328,0.00003572,0.00041192,-0.00068847,-0.0005686
 3,0.00036759,-0.00039573,0.00023590,-0.00009809,0.00092568,-0.00017794
 ,0.00000072,-0.00046550,-0.00000558,-0.00006250,-0.00036281,0.00006896
 ,0.00015704,0.00003515,-0.00004685,0.00098983,0.00013989,0.00022364,0.
 26265272,0.00043181,-0.00007742,0.00012355,-0.00063116,-0.00008375,0.0
 0034125,0.00020091,0.00009326,-0.00012786,0.00160736,0.00046661,-0.000
 06010,0.00105207,-0.00190446,0.00169665,0.00897588,0.00836796,-0.00221
 904,-0.14116105,-0.17066852,0.03176181,-0.01880964,-0.04269186,0.00047
 258,-0.00921609,-0.00060372,-0.00521424,0.00296133,0.00219686,0.002454
 49,0.00183312,0.00034457,0.00067386,0.00014921,0.00111254,-0.00031192,
 0.00143776,0.00005035,0.00000493,0.00007914,-0.00093830,0.00104828,-0.
 00015412,-0.00013003,0.00006448,-0.00037488,0.00041213,-0.00017505,0.0
 0044673,-0.00064907,0.00011984,-0.00004575,0.00041771,0.00001079,-0.00
 005635,0.00028368,-0.00006309,-0.00007482,-0.00000821,0.00005723,-0.00
 061985,0.00021983,-0.00028339,0.15245712,0.19986738,-0.00044214,0.0000
 6814,-0.00011554,0.00048571,0.00010252,-0.00047688,-0.00016241,-0.0000
 8895,0.00017663,-0.00191344,-0.00042471,0.00044733,-0.00125500,0.00291
 979,-0.00310213,-0.02194506,-0.01591692,0.00470290,0.04603979,0.034536
 94,-0.07560863,-0.01055029,-0.01330574,0.00305586,0.00061592,0.0021748
 7,0.00159404,-0.00027705,-0.00027190,-0.00063617,0.00009739,-0.0005060
 6,-0.00054685,0.00265113,-0.00063298,0.00052472,-0.00237793,0.00186159
 ,0.00227100,0.00123568,-0.00005229,-0.00156558,0.00052397,-0.00113444,
 -0.00069789,0.00023127,-0.00040465,0.00043472,-0.00030979,-0.00053771,
 -0.00202761,0.00003883,0.00045425,0.00046623,0.00079722,0.00082001,0.0
 0094663,-0.00031028,-0.00006414,-0.00000586,0.00081533,-0.00049631,0.0
 0090305,-0.04172600,-0.03112740,0.07135981,0.00010804,-0.00007492,0.00
 011480,0.00002843,0.00011144,-0.00013639,-0.00006600,-0.00011199,0.000
 22374,0.00027175,0.00010003,0.00038071,0.00188277,0.00014399,-0.001030
 87,0.00980753,-0.00062673,-0.03321674,-0.08732944,-0.00371538,0.077173
 54,-0.00442230,0.00846866,0.00902869,0.00408115,0.00043430,0.00588474,
 -0.00142150,-0.00095238,-0.00194876,-0.00072719,0.00018976,-0.00097286
 ,0.00061627,-0.00110964,0.00137475,-0.00042569,-0.00017432,0.00058115,
 0.00064185,-0.00008642,0.00033956,0.00000639,-0.00000661,-0.00019644,-
 0.00011350,-0.00051989,0.00037197,-0.00041034,-0.00061269,-0.00128784,
 0.00006643,0.00038779,0.00032373,-0.00021309,-0.00026298,0.00076364,-0
 .00068471,-0.00006495,0.00011817,-0.00502252,0.00204199,-0.00282524,-0
 .00429717,-0.00048874,0.02773713,0.08762284,0.00017185,-0.00004440,0.0
 0008743,-0.00044544,0.00004506,-0.00007244,0.00014577,0.00000808,-0.00
 001613,0.00027990,-0.00005436,0.00003740,-0.00059486,-0.00006461,-0.00
 052059,-0.00333712,0.00196929,0.00900438,-0.00603367,-0.06210460,0.015
 88433,0.01875170,-0.01757326,-0.04366685,-0.00549818,0.00293833,-0.006
 31312,0.00229684,0.00017693,0.00210970,0.00065341,-0.00154548,0.001397
 86,-0.00071914,0.00105437,-0.00062504,-0.00135795,0.00088153,0.0011414
 8,0.00086811,-0.00072994,-0.00031220,0.00028460,-0.00051261,-0.0002671
 2,-0.00002392,0.00002259,0.00022310,-0.00003330,-0.00125974,-0.0018648
 1,-0.00000851,0.00096016,0.00047047,0.00009095,0.00004980,0.00114670,0
 .00012394,0.00018828,-0.00006875,0.00202305,-0.00049151,0.00054273,-0.
 00456771,0.00392247,0.02202608,-0.00307033,0.07216360,0.00010945,-0.00
 004575,0.00008040,-0.00020177,0.00003081,-0.00008919,-0.00000580,-0.00
 005866,0.00010742,0.00033356,0.00009717,0.00044385,0.00062917,0.000547
 14,-0.00004577,0.00535342,-0.00033804,-0.01822739,0.07887459,0.0046321
 5,-0.34901142,0.00311132,-0.00860104,-0.00319957,-0.00228152,-0.001422
 00,-0.00237658,-0.00084045,0.00198859,0.00190222,0.00058208,0.00088813
 ,0.00052596,-0.00025311,0.00034845,0.00156474,0.00049620,-0.00017368,-
 0.00050576,-0.00036045,0.00010707,0.00036878,-0.00010366,0.00028197,0.
 00012880,-0.00009370,-0.00043991,0.00034002,-0.00053409,-0.00124709,-0
 .00220854,0.00004079,0.00074841,0.00050821,0.00147082,0.00171464,0.001
 04661,-0.00090212,-0.00027645,0.00016128,-0.00270861,0.00081031,-0.000
 35770,0.00008510,0.00075236,-0.00209979,-0.08280119,-0.00034460,0.3709
 4342||-0.00002763,0.00002998,0.00000676,0.00003581,-0.00007392,-0.0000
 4319,0.00001467,0.00003520,0.00002285,-0.00005090,0.00001121,-0.000030
 27,-0.00000106,-0.00002286,-0.00000209,-0.00000523,0.00005007,0.000060
 11,-0.00000384,-0.00000916,-0.00002211,0.00000566,-0.00000546,-0.00000
 751,-0.00000769,-0.00001071,0.00002416,-0.00000518,-0.00000126,-0.0000
 1473,0.00000210,0.00001494,-0.00000644,0.00005388,-0.00005995,0.000022
 66,-0.00000371,0.00001963,-0.00006975,-0.00001982,-0.00001647,0.000043
 20,0.00000219,-0.00000323,0.00001327,0.00001239,0.00000485,-0.00001512
 ,-0.00003408,0.00001751,0.00002853,0.00001276,0.00001989,-0.00002603,0
 .00001636,0.00001702,0.00000138,0.00001085,-0.00002753,0.00001476,0.00
 000415,-0.00000970,-0.00000713,0.00000088,0.00001095,-0.00000467,-0.00
 001255,0.00000903,0.00001137|||@
 The archive entry for this job was punched.


 A MAN THINKING OR WORKING IS ALWAYS ALONE, 
 LET HIM BE WHERE HE WILL.

                                    -- THOREAU
 Job cpu time:       0 days  0 hours  1 minutes 26.0 seconds.
 Elapsed time:       0 days  0 hours  1 minutes 23.9 seconds.
 File lengths (MBytes):  RWF=    251 Int=      0 D2E=      0 Chk=      8 Scr=      1
 Normal termination of Gaussian 16 at Tue Jun 11 17:41:57 2024.
