 Entering Link 1 = C:\G16W\l1.exe PID=     11964.
  
 Copyright (c) 1988-2019, Gaussian, Inc.  All Rights Reserved.
  
 This is part of the Gaussian(R) 16 program.  It is based on
 the Gaussian(R) 09 system (copyright 2009, Gaussian, Inc.),
 the Gaussian(R) 03 system (copyright 2003, Gaussian, Inc.),
 the Gaussian(R) 98 system (copyright 1998, Gaussian, Inc.),
 the Gaussian(R) 94 system (copyright 1995, Gaussian, Inc.),
 the Gaussian 92(TM) system (copyright 1992, Gaussian, Inc.),
 the Gaussian 90(TM) system (copyright 1990, Gaussian, Inc.),
 the Gaussian 88(TM) system (copyright 1988, Gaussian, Inc.),
 the Gaussian 86(TM) system (copyright 1986, Carnegie Mellon
 University), and the Gaussian 82(TM) system (copyright 1983,
 Carnegie Mellon University). Gaussian is a federally registered
 trademark of Gaussian, Inc.
  
 This software contains proprietary and confidential information,
 including trade secrets, belonging to Gaussian, Inc.
  
 This software is provided under written license and may be
 used, copied, transmitted, or stored only in accord with that
 written license.
  
 The following legend is applicable only to US Government
 contracts under FAR:
  
                    RESTRICTED RIGHTS LEGEND
  
 Use, reproduction and disclosure by the US Government is
 subject to restrictions as set forth in subparagraphs (a)
 and (c) of the Commercial Computer Software - Restricted
 Rights clause in FAR 52.227-19.
  
 Gaussian, Inc.
 340 Quinnipiac St., Bldg. 40, Wallingford CT 06492
  
  
 ---------------------------------------------------------------
 Warning -- This program may not be used in any manner that
 competes with the business of Gaussian, Inc. or will provide
 assistance to any competitor of Gaussian, Inc.  The licensee
 of this program is prohibited from giving any competitor of
 Gaussian, Inc. access to this program.  By using this program,
 the user acknowledges that Gaussian, Inc. is engaged in the
 business of creating and licensing software in the field of
 computational chemistry and represents and warrants to the
 licensee that it is not a competitor of Gaussian, Inc. and that
 it will not use this program in any manner prohibited above.
 ---------------------------------------------------------------
  

 Cite this work as:
 Gaussian 16, Revision C.01,
 M. J. Frisch, G. W. Trucks, H. B. Schlegel, G. E. Scuseria, 
 M. A. Robb, J. R. Cheeseman, G. Scalmani, V. Barone, 
 G. A. Petersson, H. Nakatsuji, X. Li, M. Caricato, A. V. Marenich, 
 J. Bloino, B. G. Janesko, R. Gomperts, B. Mennucci, H. P. Hratchian, 
 J. V. Ortiz, A. F. Izmaylov, J. L. Sonnenberg, D. Williams-Young, 
 F. Ding, F. Lipparini, F. Egidi, J. Goings, B. Peng, A. Petrone, 
 T. Henderson, D. Ranasinghe, V. G. Zakrzewski, J. Gao, N. Rega, 
 G. Zheng, W. Liang, M. Hada, M. Ehara, K. Toyota, R. Fukuda, 
 J. Hasegawa, M. Ishida, T. Nakajima, Y. Honda, O. Kitao, H. Nakai, 
 T. Vreven, K. Throssell, J. A. Montgomery, Jr., J. E. Peralta, 
 F. Ogliaro, M. J. Bearpark, J. J. Heyd, E. N. Brothers, K. N. Kudin, 
 V. N. Staroverov, T. A. Keith, R. Kobayashi, J. Normand, 
 K. Raghavachari, A. P. Rendell, J. C. Burant, S. S. Iyengar, 
 J. Tomasi, M. Cossi, J. M. Millam, M. Klene, C. Adamo, R. Cammi, 
 J. W. Ochterski, R. L. Martin, K. Morokuma, O. Farkas, 
 J. B. Foresman, and D. J. Fox, Gaussian, Inc., Wallingford CT, 2019.
 
 ******************************************
 Gaussian 16:  EM64W-G16RevC.01 30-May-2019
                11-Jun-2024 
 ******************************************
 %nprocshared=24
 Will use up to   24 processors via shared memory.
 %mem=120GB
 ----------------------
 # HF/6-31G(d) Opt Freq
 ----------------------
 1/18=20,19=15,38=1/1,3;
 2/9=110,12=2,17=6,18=5,40=1/2;
 3/5=1,6=6,7=1,11=9,25=1,30=1,71=1/1,2,3;
 4//1;
 5/5=2,38=5/2;
 6/7=2,8=2,9=2,10=2,28=1/1;
 7//1,2,3,16;
 1/18=20,19=15/3(2);
 2/9=110/2;
 99//99;
 2/9=110/2;
 3/5=1,6=6,7=1,11=9,25=1,30=1,71=1/1,2,3;
 4/5=5,16=3,69=1/1;
 5/5=2,38=5/2;
 7//1,2,3,16;
 1/18=20,19=15/3(-5);
 2/9=110/2;
 6/7=2,8=2,9=2,10=2,19=2,28=1/1;
 99/9=1/99;
 ----------------------------------------------------------------------
 O=[N+1]([O-1])OC(C(CO[N+1]([O-1])[O-1])O[N+1]([O-1])=O)O[N+1]([O-1])=O
  geometry optimization
 ----------------------------------------------------------------------
 Symbolic Z-matrix:
 Charge =  0 Multiplicity = 1
 O                     1.44077  -2.49311   2.88103 
 N                     1.64237  -1.60683   2.05619 
 O                     2.69742  -1.10858   1.66541 
 O                     0.44793  -1.09554   1.50394 
 C                     0.68058  -0.00823   0.59422 
 C                    -0.72346   0.62698   0.34938 
 C                    -1.69853  -0.31775  -0.38018 
 O                    -1.23348  -0.59903  -1.70334 
 N                    -1.57111  -1.9652   -2.09704 
 O                    -2.95329  -2.18927  -1.84504 
 O                    -0.81567  -2.84604  -1.27127 
 O                    -0.65493   1.82955  -0.42783 
 N                    -0.35615   2.98505   0.33976 
 O                    -0.43009   4.0217   -0.3118 
 O                    -0.07828   2.80258   1.52502 
 O                     1.23123  -0.4954   -0.62763 
 N                     2.06841   0.42682  -1.28888 
 O                     2.17562   1.5452   -0.79003 
 O                     2.52904  -0.02103  -2.33456 
 H                     1.31998   0.72619   1.09971 
 H                    -1.20334   0.81814   1.32014 
 H                    -1.84596  -1.21829   0.22796 
 H                    -2.66904   0.18213  -0.48515 
 

 GradGradGradGradGradGradGradGradGradGradGradGradGradGradGradGradGradGrad
 Berny optimization.
 Initialization pass.
                           ----------------------------
                           !    Initial Parameters    !
                           ! (Angstroms and Degrees)  !
 --------------------------                            --------------------------
 ! Name  Definition              Value          Derivative Info.                !
 --------------------------------------------------------------------------------
 ! R1    R(1,2)                  1.2274         estimate D2E/DX2                !
 ! R2    R(2,3)                  1.2305         estimate D2E/DX2                !
 ! R3    R(2,4)                  1.4118         estimate D2E/DX2                !
 ! R4    R(4,5)                  1.4366         estimate D2E/DX2                !
 ! R5    R(5,6)                  1.5604         estimate D2E/DX2                !
 ! R6    R(5,16)                 1.426          estimate D2E/DX2                !
 ! R7    R(5,20)                 1.0971         estimate D2E/DX2                !
 ! R8    R(6,7)                  1.5413         estimate D2E/DX2                !
 ! R9    R(6,12)                 1.4335         estimate D2E/DX2                !
 ! R10   R(6,21)                 1.0996         estimate D2E/DX2                !
 ! R11   R(7,8)                  1.4304         estimate D2E/DX2                !
 ! R12   R(7,22)                 1.0966         estimate D2E/DX2                !
 ! R13   R(7,23)                 1.0967         estimate D2E/DX2                !
 ! R14   R(8,9)                  1.4613         estimate D2E/DX2                !
 ! R15   R(9,10)                 1.4227         estimate D2E/DX2                !
 ! R16   R(9,11)                 1.4242         estimate D2E/DX2                !
 ! R17   R(12,13)                1.419          estimate D2E/DX2                !
 ! R18   R(13,14)                1.2266         estimate D2E/DX2                !
 ! R19   R(13,15)                1.231          estimate D2E/DX2                !
 ! R20   R(16,17)                1.4102         estimate D2E/DX2                !
 ! R21   R(17,18)                1.2293         estimate D2E/DX2                !
 ! R22   R(17,19)                1.2273         estimate D2E/DX2                !
 ! A1    A(1,2,3)              130.289          estimate D2E/DX2                !
 ! A2    A(1,2,4)              112.6702         estimate D2E/DX2                !
 ! A3    A(3,2,4)              117.0363         estimate D2E/DX2                !
 ! A4    A(2,4,5)              112.631          estimate D2E/DX2                !
 ! A5    A(4,5,6)              105.174          estimate D2E/DX2                !
 ! A6    A(4,5,16)             110.2761         estimate D2E/DX2                !
 ! A7    A(4,5,20)             108.0142         estimate D2E/DX2                !
 ! A8    A(6,5,16)             110.615          estimate D2E/DX2                !
 ! A9    A(6,5,20)             108.9162         estimate D2E/DX2                !
 ! A10   A(16,5,20)            113.4792         estimate D2E/DX2                !
 ! A11   A(5,6,7)              113.2036         estimate D2E/DX2                !
 ! A12   A(5,6,12)             112.5549         estimate D2E/DX2                !
 ! A13   A(5,6,21)             108.9609         estimate D2E/DX2                !
 ! A14   A(7,6,12)             106.727          estimate D2E/DX2                !
 ! A15   A(7,6,21)             104.3794         estimate D2E/DX2                !
 ! A16   A(12,6,21)            110.7116         estimate D2E/DX2                !
 ! A17   A(6,7,8)              110.6525         estimate D2E/DX2                !
 ! A18   A(6,7,22)             109.0209         estimate D2E/DX2                !
 ! A19   A(6,7,23)             109.012          estimate D2E/DX2                !
 ! A20   A(8,7,22)             113.2784         estimate D2E/DX2                !
 ! A21   A(8,7,23)             106.7854         estimate D2E/DX2                !
 ! A22   A(22,7,23)            107.9638         estimate D2E/DX2                !
 ! A23   A(7,8,9)              110.9731         estimate D2E/DX2                !
 ! A24   A(8,9,10)             108.9041         estimate D2E/DX2                !
 ! A25   A(8,9,11)             107.4239         estimate D2E/DX2                !
 ! A26   A(10,9,11)            108.3729         estimate D2E/DX2                !
 ! A27   A(6,12,13)            113.5718         estimate D2E/DX2                !
 ! A28   A(12,13,14)           112.8394         estimate D2E/DX2                !
 ! A29   A(12,13,15)           116.5931         estimate D2E/DX2                !
 ! A30   A(14,13,15)           130.5658         estimate D2E/DX2                !
 ! A31   A(5,16,17)            114.055          estimate D2E/DX2                !
 ! A32   A(16,17,18)           117.1587         estimate D2E/DX2                !
 ! A33   A(16,17,19)           112.5638         estimate D2E/DX2                !
 ! A34   A(18,17,19)           130.1677         estimate D2E/DX2                !
 ! D1    D(1,2,3,4)           -179.1719         estimate D2E/DX2                !
 ! D2    D(1,2,4,5)            176.7628         estimate D2E/DX2                !
 ! D3    D(3,2,4,5)             -2.5526         estimate D2E/DX2                !
 ! D4    D(2,4,5,6)           -167.4052         estimate D2E/DX2                !
 ! D5    D(2,4,5,16)            73.3135         estimate D2E/DX2                !
 ! D6    D(2,4,5,20)           -51.2117         estimate D2E/DX2                !
 ! D7    D(4,5,6,7)            -65.3658         estimate D2E/DX2                !
 ! D8    D(4,5,6,12)           173.4948         estimate D2E/DX2                !
 ! D9    D(4,5,6,21)            50.2908         estimate D2E/DX2                !
 ! D10   D(16,5,6,7)            53.6891         estimate D2E/DX2                !
 ! D11   D(16,5,6,12)          -67.4502         estimate D2E/DX2                !
 ! D12   D(16,5,6,21)          169.3458         estimate D2E/DX2                !
 ! D13   D(20,5,6,7)           179.0614         estimate D2E/DX2                !
 ! D14   D(20,5,6,12)           57.9221         estimate D2E/DX2                !
 ! D15   D(20,5,6,21)          -65.2819         estimate D2E/DX2                !
 ! D16   D(4,5,16,17)         -150.6685         estimate D2E/DX2                !
 ! D17   D(6,5,16,17)           93.4122         estimate D2E/DX2                !
 ! D18   D(20,5,16,17)         -29.3417         estimate D2E/DX2                !
 ! D19   D(5,6,7,8)            -64.7838         estimate D2E/DX2                !
 ! D20   D(5,6,7,22)            60.4329         estimate D2E/DX2                !
 ! D21   D(5,6,7,23)           178.0677         estimate D2E/DX2                !
 ! D22   D(12,6,7,8)            59.5903         estimate D2E/DX2                !
 ! D23   D(12,6,7,22)         -175.193          estimate D2E/DX2                !
 ! D24   D(12,6,7,23)          -57.5583         estimate D2E/DX2                !
 ! D25   D(21,6,7,8)           176.8664         estimate D2E/DX2                !
 ! D26   D(21,6,7,22)          -57.9168         estimate D2E/DX2                !
 ! D27   D(21,6,7,23)           59.7179         estimate D2E/DX2                !
 ! D28   D(5,6,12,13)          -83.4719         estimate D2E/DX2                !
 ! D29   D(7,6,12,13)          151.7568         estimate D2E/DX2                !
 ! D30   D(21,6,12,13)          38.7488         estimate D2E/DX2                !
 ! D31   D(6,7,8,9)            145.5498         estimate D2E/DX2                !
 ! D32   D(22,7,8,9)            22.7761         estimate D2E/DX2                !
 ! D33   D(23,7,8,9)           -95.9394         estimate D2E/DX2                !
 ! D34   D(7,8,9,10)            50.2653         estimate D2E/DX2                !
 ! D35   D(7,8,9,11)           -66.9071         estimate D2E/DX2                !
 ! D36   D(8,9,10,11)         -116.5676         estimate D2E/DX2                !
 ! D37   D(6,12,13,14)        -173.2591         estimate D2E/DX2                !
 ! D38   D(6,12,13,15)           6.3222         estimate D2E/DX2                !
 ! D39   D(12,13,14,15)        179.5071         estimate D2E/DX2                !
 ! D40   D(5,16,17,18)          -3.5586         estimate D2E/DX2                !
 ! D41   D(5,16,17,19)         179.8626         estimate D2E/DX2                !
 ! D42   D(16,17,18,19)       -175.8646         estimate D2E/DX2                !
 --------------------------------------------------------------------------------
 Trust Radius=3.00D-01 FncErr=1.00D-07 GrdErr=1.00D-07 EigMax=2.50D+02 EigMin=1.00D-04
 Number of steps in this run=    108 maximum allowed number of steps=    138.
 GradGradGradGradGradGradGradGradGradGradGradGradGradGradGradGradGradGrad

                          Input orientation:                          
 ---------------------------------------------------------------------
 Center     Atomic      Atomic             Coordinates (Angstroms)
 Number     Number       Type             X           Y           Z
 ---------------------------------------------------------------------
      1          8           0        1.440766   -2.493115    2.881028
      2          7           0        1.642367   -1.606832    2.056193
      3          8           0        2.697422   -1.108583    1.665407
      4          8           0        0.447934   -1.095544    1.503945
      5          6           0        0.680579   -0.008233    0.594225
      6          6           0       -0.723462    0.626983    0.349382
      7          6           0       -1.698535   -0.317749   -0.380177
      8          8           0       -1.233476   -0.599032   -1.703344
      9          7           0       -1.571112   -1.965203   -2.097041
     10          8           0       -2.953288   -2.189270   -1.845039
     11          8           0       -0.815671   -2.846044   -1.271268
     12          8           0       -0.654933    1.829546   -0.427831
     13          7           0       -0.356150    2.985050    0.339756
     14          8           0       -0.430091    4.021697   -0.311804
     15          8           0       -0.078278    2.802578    1.525017
     16          8           0        1.231228   -0.495399   -0.627630
     17          7           0        2.068409    0.426818   -1.288884
     18          8           0        2.175616    1.545198   -0.790028
     19          8           0        2.529045   -0.021031   -2.334561
     20          1           0        1.319975    0.726186    1.099710
     21          1           0       -1.203342    0.818143    1.320139
     22          1           0       -1.845961   -1.218288    0.227958
     23          1           0       -2.669042    0.182126   -0.485154
 ---------------------------------------------------------------------
                    Distance matrix (angstroms):
                    1          2          3          4          5
     1  O    0.000000
     2  N    1.227393   0.000000
     3  O    2.230212   1.230491   0.000000
     4  O    2.198927   1.411759   2.255313   0.000000
     5  C    3.461501   2.370212   2.534928   1.436648   0.000000
     6  C    4.563783   3.674272   4.055435   2.381655   1.560377
     7  C    5.022238   4.331195   4.912664   2.960102   2.589487
     8  O    5.635210   4.839448   5.201932   3.655184   3.048192
     9  N    5.842198   5.263481   5.754147   4.218999   4.017805
    10  O    6.460320   6.056310   6.739558   4.896962   4.889981
    11  O    4.738948   4.318518   4.897414   3.516071   3.711064
    12  O    5.833172   4.822515   4.924686   3.674809   2.491109
    13  N    6.300576   5.293921   5.276314   4.318927   3.177941
    14  O    7.492467   6.448475   6.325384   5.500366   4.277244
    15  O    5.673679   4.762947   4.798062   3.933535   3.056616
    16  O    4.042952   2.933807   2.789936   2.348901   1.425999
    17  N    5.129143   3.937865   3.388355   3.569792   2.379378
    18  O    5.506780   4.280259   3.652943   3.901373   2.562116
    19  O    5.873493   4.751808   4.148598   4.496635   3.463348
    20  H    3.681247   2.542001   2.362996   2.059748   1.097139
    21  H    4.515762   3.810556   4.364338   2.534303   2.181515
    22  H    4.412090   3.957504   4.766616   2.627768   2.825206
    23  H    5.947992   5.314796   5.923663   3.912096   3.524380
                    6          7          8          9         10
     6  C    0.000000
     7  C    1.541279   0.000000
     8  O    2.444773   1.430445   0.000000
     9  N    3.663731   2.382848   1.461307   0.000000
    10  O    4.209381   2.687530   2.346633   1.422716   0.000000
    11  O    3.833657   2.822369   2.326008   1.424245   2.308673
    12  O    1.433497   2.387938   2.803504   4.245676   4.841672
    13  N    2.386523   3.637139   4.217772   5.649701   6.188057
    14  O    3.470925   4.521550   4.892131   6.350746   6.877023
    15  O    2.555699   3.998930   4.829881   6.170867   6.673943
    16  O    2.456645   2.945557   2.691221   3.488926   4.675624
    17  N    3.243228   3.945883   3.482326   4.429560   5.689522
    18  O    3.247465   4.318286   4.129622   5.298035   6.431559
    19  O    4.266412   4.666914   3.858638   4.543953   5.915815
    20  H    2.179098   3.520123   4.016644   5.081455   5.952496
    21  H    1.099634   2.103934   3.339273   4.422600   4.703743
    22  H    2.163278   1.096600   2.118619   2.457447   2.542891
    23  H    2.163246   1.096713   2.038393   2.900802   2.748381
                   11         12         13         14         15
    11  O    0.000000
    12  O    4.753773   0.000000
    13  N    6.066978   1.419032   0.000000
    14  O    6.945150   2.206704   1.226636   0.000000
    15  O    6.345856   2.256754   1.230996   2.232473   0.000000
    16  O    3.182703   3.000482   3.945773   4.823265   4.150343
    17  N    4.362322   3.182083   3.882719   4.485571   4.262692
    18  O    5.335016   2.867761   3.124008   3.626494   3.467056
    19  O    4.505376   4.147044   4.951045   5.402933   5.446764
    20  H    4.789922   2.729661   2.913656   3.989424   2.539174
    21  H    4.504658   2.092627   2.524752   3.677488   2.290356
    22  H    2.441059   3.337349   4.460951   5.454674   4.579785
    23  H    3.636313   2.602674   3.726437   4.448062   4.197573
                   16         17         18         19         20
    16  O    0.000000
    17  N    1.410181   0.000000
    18  O    2.254390   1.229278   0.000000
    19  O    2.196125   1.227271   2.227906   0.000000
    20  H    2.117510   2.520944   2.230249   3.716773   0.000000
    21  H    3.383242   4.202915   4.049540   5.290724   2.534596
    22  H    3.274706   4.508823   4.984600   5.209665   3.816292
    23  H    3.961243   4.811372   5.041986   5.521022   4.326668
                   21         22         23
    21  H    0.000000
    22  H    2.398514   0.000000
    23  H    2.410783   1.774020   0.000000
 Stoichiometry    C3H4N4O12
 Framework group  C1[X(C3H4N4O12)]
 Deg. of freedom    63
 Full point group                 C1      NOp   1
 Largest Abelian subgroup         C1      NOp   1
 Largest concise Abelian subgroup C1      NOp   1
                         Standard orientation:                         
 ---------------------------------------------------------------------
 Center     Atomic      Atomic             Coordinates (Angstroms)
 Number     Number       Type             X           Y           Z
 ---------------------------------------------------------------------
      1          8           0       -1.657886    3.403591   -1.464595
      2          7           0       -0.883022    2.806601   -0.723189
      3          8           0       -0.227813    3.212401    0.236048
      4          8           0       -0.737891    1.445775   -1.069820
      5          6           0        0.224811    0.765716   -0.248430
      6          6           0        0.489033   -0.593026   -0.968698
      7          6           0       -0.746759   -1.513517   -1.001151
      8          8           0       -1.113282   -1.912884    0.322609
      9          7           0       -2.563514   -2.042129    0.447275
     10          8           0       -3.047842   -2.848643   -0.620003
     11          8           0       -3.120945   -0.738354    0.313434
     12          8           0        1.546305   -1.343198   -0.356870
     13          7           0        2.841046   -0.955389   -0.789191
     14          8           0        3.725739   -1.689024   -0.360551
     15          8           0        2.904643    0.031552   -1.522167
     16          8           0       -0.305920    0.547112    1.056948
     17          7           0        0.668937    0.511661    2.075284
     18          8           0        1.845138    0.601538    1.729454
     19          8           0        0.182580    0.324965    3.186498
     20          1           0        1.149964    1.355461   -0.251037
     21          1           0        0.712557   -0.398523   -2.027661
     22          1           0       -1.555872   -1.006666   -1.540568
     23          1           0       -0.495899   -2.429168   -1.550179
 ---------------------------------------------------------------------
 Rotational constants (GHZ):           0.3758470           0.3345421           0.2569461
 Standard basis: 6-31G(d) (6D, 7F)
 There are   293 symmetry adapted cartesian basis functions of A   symmetry.
 There are   293 symmetry adapted basis functions of A   symmetry.
   293 basis functions,   548 primitive gaussians,   293 cartesian basis functions
    73 alpha electrons       73 beta electrons
       nuclear repulsion energy      1667.2290752357 Hartrees.
 NAtoms=   23 NActive=   23 NUniq=   23 SFac= 1.00D+00 NAtFMM=   60 NAOKFM=F Big=F
 Integral buffers will be    131072 words long.
 Raffenetti 1 integral format.
 Two-electron integral symmetry is turned on.
 One-electron integrals computed using PRISM.
 NBasis=   293 RedAO= T EigKep=  2.06D-03  NBF=   293
 NBsUse=   293 1.00D-06 EigRej= -1.00D+00 NBFU=   293
 ExpMin= 1.61D-01 ExpMax= 5.48D+03 ExpMxC= 8.25D+02 IAcc=3 IRadAn=         5 AccDes= 0.00D+00
 Harris functional with IExCor=  205 and IRadAn=       5 diagonalized for initial guess.
 HarFok:  IExCor=  205 AccDes= 0.00D+00 IRadAn=         5 IDoV= 1 UseB2=F ITyADJ=14
 ICtDFT=  3500011 ScaDFX=  1.000000  1.000000  1.000000  1.000000
 FoFCou: FMM=F IPFlag=           0 FMFlag=      100000 FMFlg1=           0
         NFxFlg=           0 DoJE=T BraDBF=F KetDBF=T FulRan=T
         wScrn=  0.000000 ICntrl=       500 IOpCl=  0 I1Cent=   200000004 NGrid=           0
         NMat0=    1 NMatS0=      1 NMatT0=    0 NMatD0=    1 NMtDS0=    0 NMtDT0=    0
 Petite list used in FoFCou.
 Requested convergence on RMS density matrix=1.00D-08 within 128 cycles.
 Requested convergence on MAX density matrix=1.00D-06.
 Requested convergence on             energy=1.00D-06.
 No special actions if energy rises.
 Integral accuracy reduced to 1.0D-05 until final iterations.
 Initial convergence to 1.0D-05 achieved.  Increase integral accuracy.
 SCF Done:  E(RHF) =  -1231.10637426     A.U. after   29 cycles
            NFock= 29  Conv=0.72D-08     -V/T= 2.0048

 **********************************************************************

            Population analysis using the SCF Density.

 **********************************************************************

 Orbital symmetries:
       Occupied  (A) (A) (A) (A) (A) (A) (A) (A) (A) (A) (A) (A)
                 (A) (A) (A) (A) (A) (A) (A) (A) (A) (A) (A) (A)
                 (A) (A) (A) (A) (A) (A) (A) (A) (A) (A) (A) (A)
                 (A) (A) (A) (A) (A) (A) (A) (A) (A) (A) (A) (A)
                 (A) (A) (A) (A) (A) (A) (A) (A) (A) (A) (A) (A)
                 (A) (A) (A) (A) (A) (A) (A) (A) (A) (A) (A) (A)
                 (A)
       Virtual   (A) (A) (A) (A) (A) (A) (A) (A) (A) (A) (A) (A)
                 (A) (A) (A) (A) (A) (A) (A) (A) (A) (A) (A) (A)
                 (A) (A) (A) (A) (A) (A) (A) (A) (A) (A) (A) (A)
                 (A) (A) (A) (A) (A) (A) (A) (A) (A) (A) (A) (A)
                 (A) (A) (A) (A) (A) (A) (A) (A) (A) (A) (A) (A)
                 (A) (A) (A) (A) (A) (A) (A) (A) (A) (A) (A) (A)
                 (A) (A) (A) (A) (A) (A) (A) (A) (A) (A) (A) (A)
                 (A) (A) (A) (A) (A) (A) (A) (A) (A) (A) (A) (A)
                 (A) (A) (A) (A) (A) (A) (A) (A) (A) (A) (A) (A)
                 (A) (A) (A) (A) (A) (A) (A) (A) (A) (A) (A) (A)
                 (A) (A) (A) (A) (A) (A) (A) (A) (A) (A) (A) (A)
                 (A) (A) (A) (A) (A) (A) (A) (A) (A) (A) (A) (A)
                 (A) (A) (A) (A) (A) (A) (A) (A) (A) (A) (A) (A)
                 (A) (A) (A) (A) (A) (A) (A) (A) (A) (A) (A) (A)
                 (A) (A) (A) (A) (A) (A) (A) (A) (A) (A) (A) (A)
                 (A) (A) (A) (A) (A) (A) (A) (A) (A) (A) (A) (A)
                 (A) (A) (A) (A) (A) (A) (A) (A) (A) (A) (A) (A)
                 (A) (A) (A) (A) (A) (A) (A) (A) (A) (A) (A) (A)
                 (A) (A) (A) (A)
 The electronic state is 1-A.
 Alpha  occ. eigenvalues --  -20.74242 -20.73132 -20.72644 -20.70791 -20.69679
 Alpha  occ. eigenvalues --  -20.69122 -20.68363 -20.68292 -20.68240 -20.68238
 Alpha  occ. eigenvalues --  -20.67639 -20.67623 -15.97765 -15.97450 -15.97268
 Alpha  occ. eigenvalues --  -15.92818 -11.44972 -11.39673 -11.37088  -1.69803
 Alpha  occ. eigenvalues --   -1.69170  -1.68786  -1.56300  -1.51150  -1.47971
 Alpha  occ. eigenvalues --   -1.47309  -1.47223  -1.46729  -1.45642  -1.40713
 Alpha  occ. eigenvalues --   -1.33672  -1.15461  -1.07284  -1.01758  -0.98347
 Alpha  occ. eigenvalues --   -0.95702  -0.92817  -0.87855  -0.85939  -0.85351
 Alpha  occ. eigenvalues --   -0.83850  -0.82739  -0.80585  -0.80030  -0.79577
 Alpha  occ. eigenvalues --   -0.79337  -0.77681  -0.76922  -0.75710  -0.73407
 Alpha  occ. eigenvalues --   -0.71943  -0.69713  -0.67611  -0.66566  -0.64571
 Alpha  occ. eigenvalues --   -0.63622  -0.61856  -0.60703  -0.59740  -0.58175
 Alpha  occ. eigenvalues --   -0.56703  -0.56229  -0.56073  -0.55386  -0.55001
 Alpha  occ. eigenvalues --   -0.54517  -0.54332  -0.53625  -0.52074  -0.51317
 Alpha  occ. eigenvalues --   -0.51003  -0.50530  -0.47043
 Alpha virt. eigenvalues --   -0.09779   0.05000   0.05059   0.05895   0.15810
 Alpha virt. eigenvalues --    0.16882   0.20219   0.21203   0.23434   0.24947
 Alpha virt. eigenvalues --    0.26031   0.27409   0.27970   0.28817   0.29770
 Alpha virt. eigenvalues --    0.31526   0.32805   0.37333   0.39178   0.40985
 Alpha virt. eigenvalues --    0.43000   0.43633   0.44474   0.54802   0.55983
 Alpha virt. eigenvalues --    0.56235   0.66541   0.68449   0.69766   0.71305
 Alpha virt. eigenvalues --    0.73049   0.73780   0.74990   0.75910   0.79967
 Alpha virt. eigenvalues --    0.80843   0.81421   0.81648   0.82683   0.83413
 Alpha virt. eigenvalues --    0.84555   0.85554   0.86559   0.88197   0.88628
 Alpha virt. eigenvalues --    0.89960   0.93711   0.95380   0.97894   0.99583
 Alpha virt. eigenvalues --    0.99810   1.00332   1.03008   1.03692   1.03867
 Alpha virt. eigenvalues --    1.04763   1.05962   1.06272   1.07366   1.07679
 Alpha virt. eigenvalues --    1.08624   1.10181   1.10501   1.11767   1.13865
 Alpha virt. eigenvalues --    1.15165   1.15895   1.17099   1.18130   1.19225
 Alpha virt. eigenvalues --    1.19578   1.20567   1.21752   1.22227   1.22601
 Alpha virt. eigenvalues --    1.23474   1.24279   1.25190   1.25813   1.28002
 Alpha virt. eigenvalues --    1.29512   1.30583   1.32342   1.33222   1.33914
 Alpha virt. eigenvalues --    1.35314   1.38339   1.38697   1.40122   1.42860
 Alpha virt. eigenvalues --    1.45133   1.48182   1.50450   1.52445   1.52561
 Alpha virt. eigenvalues --    1.55228   1.56942   1.57641   1.58866   1.59814
 Alpha virt. eigenvalues --    1.62793   1.63606   1.65258   1.66643   1.67887
 Alpha virt. eigenvalues --    1.69840   1.70370   1.72000   1.74325   1.76085
 Alpha virt. eigenvalues --    1.79824   1.83545   1.86172   1.87516   1.88364
 Alpha virt. eigenvalues --    1.94119   1.95683   1.96151   1.96830   1.99875
 Alpha virt. eigenvalues --    2.00731   2.01456   2.02367   2.03062   2.03299
 Alpha virt. eigenvalues --    2.03831   2.04331   2.04365   2.04919   2.05619
 Alpha virt. eigenvalues --    2.06443   2.08812   2.09539   2.10582   2.12766
 Alpha virt. eigenvalues --    2.14121   2.15280   2.16723   2.19929   2.20235
 Alpha virt. eigenvalues --    2.21726   2.22740   2.23951   2.26123   2.26435
 Alpha virt. eigenvalues --    2.27033   2.28715   2.29299   2.30203   2.31026
 Alpha virt. eigenvalues --    2.32159   2.33265   2.35404   2.36554   2.38333
 Alpha virt. eigenvalues --    2.39750   2.41729   2.43583   2.44130   2.47292
 Alpha virt. eigenvalues --    2.48677   2.51433   2.55920   2.57630   2.62509
 Alpha virt. eigenvalues --    2.63854   2.70105   2.71715   2.73898   2.76257
 Alpha virt. eigenvalues --    2.77101   2.78862   2.84145   2.86666   2.92350
 Alpha virt. eigenvalues --    2.94879   2.97580   2.98883   2.99772   3.00889
 Alpha virt. eigenvalues --    3.02356   3.03876   3.09197   3.09547   3.12021
 Alpha virt. eigenvalues --    3.12146   3.13185   3.14076   3.15663   3.16019
 Alpha virt. eigenvalues --    3.16537   3.17295   3.18591   3.22491   3.25378
 Alpha virt. eigenvalues --    3.32457   3.33792   3.36560   3.39328   3.41721
 Alpha virt. eigenvalues --    3.43925   3.73316   3.92536   3.95288   3.99288
 Alpha virt. eigenvalues --    4.01741   4.12373   4.15319   4.17400   4.18602
 Alpha virt. eigenvalues --    4.20364   4.24175   4.37094   4.40735   4.41673
 Alpha virt. eigenvalues --    4.53564   4.60148   4.69865   4.93386   5.02940
          Condensed to atoms (all electrons):
               1          2          3          4          5          6
     1  O    8.164181   0.374649  -0.074607  -0.083030   0.002898  -0.000101
     2  N    0.374649   5.225181   0.326560   0.188169  -0.034396   0.002277
     3  O   -0.074607   0.326560   8.250792  -0.086804   0.003497   0.000458
     4  O   -0.083030   0.188169  -0.086804   8.452283   0.134395  -0.038844
     5  C    0.002898  -0.034396   0.003497   0.134395   4.754861   0.306688
     6  C   -0.000101   0.002277   0.000458  -0.038844   0.306688   5.049619
     7  C    0.000002  -0.000145  -0.000016   0.002224  -0.046598   0.304841
     8  O    0.000000  -0.000002   0.000000  -0.000083   0.004702  -0.045225
     9  N    0.000000   0.000000   0.000000  -0.000026  -0.000316   0.003850
    10  O    0.000000   0.000000   0.000000   0.000000  -0.000028   0.000817
    11  O   -0.000001   0.000010   0.000000   0.000069   0.001489  -0.002123
    12  O    0.000000  -0.000009   0.000001   0.000689  -0.037629   0.136705
    13  N    0.000000  -0.000001   0.000000  -0.000009  -0.000724  -0.036730
    14  O    0.000000   0.000000   0.000000   0.000000  -0.000111   0.002994
    15  O    0.000000   0.000001   0.000000   0.000046  -0.003631  -0.000610
    16  O   -0.000098  -0.000467  -0.004033  -0.025317   0.127014  -0.043410
    17  N    0.000002   0.000062   0.001193   0.000808  -0.027577  -0.001215
    18  O    0.000000  -0.000021  -0.000110   0.000121   0.001139  -0.001675
    19  O    0.000000   0.000003  -0.000015  -0.000022   0.002308  -0.000065
    20  H    0.000022  -0.003417   0.003998  -0.025374   0.392636  -0.034803
    21  H    0.000002  -0.000207   0.000018   0.004467  -0.039143   0.391805
    22  H   -0.000004   0.000065   0.000004   0.001716  -0.004441  -0.028719
    23  H    0.000000   0.000002   0.000000  -0.000015   0.004193  -0.045779
               7          8          9         10         11         12
     1  O    0.000002   0.000000   0.000000   0.000000  -0.000001   0.000000
     2  N   -0.000145  -0.000002   0.000000   0.000000   0.000010  -0.000009
     3  O   -0.000016   0.000000   0.000000   0.000000   0.000000   0.000001
     4  O    0.002224  -0.000083  -0.000026   0.000000   0.000069   0.000689
     5  C   -0.046598   0.004702  -0.000316  -0.000028   0.001489  -0.037629
     6  C    0.304841  -0.045225   0.003850   0.000817  -0.002123   0.136705
     7  C    4.935357   0.135950  -0.034673   0.002513  -0.003481  -0.047174
     8  O    0.135950   8.338737   0.152959  -0.048077  -0.053339   0.003044
     9  N   -0.034673   0.152959   6.000213   0.181738   0.178683  -0.000049
    10  O    0.002513  -0.048077   0.181738   8.215882  -0.080762  -0.000001
    11  O   -0.003481  -0.053339   0.178683  -0.080762   8.198850   0.000002
    12  O   -0.047174   0.003044  -0.000049  -0.000001   0.000002   8.423378
    13  N    0.002626  -0.000050   0.000001   0.000000   0.000000   0.198268
    14  O   -0.000102   0.000001   0.000000   0.000000   0.000000  -0.081981
    15  O    0.000374  -0.000002   0.000000   0.000000   0.000000  -0.088586
    16  O   -0.001323  -0.008607   0.000292   0.000001   0.000297   0.003089
    17  N    0.000124   0.000950  -0.000016   0.000000   0.000003   0.000303
    18  O   -0.000022  -0.000026   0.000000   0.000000   0.000000  -0.002800
    19  O   -0.000002  -0.000015   0.000003   0.000000   0.000002  -0.000044
    20  H    0.002545  -0.000054   0.000001   0.000000   0.000003  -0.000490
    21  H   -0.032980   0.001795  -0.000023   0.000001  -0.000013  -0.022789
    22  H    0.387930  -0.024340  -0.004141  -0.002696   0.003637   0.002065
    23  H    0.403264  -0.035168   0.000646  -0.000204   0.000441   0.000195
              13         14         15         16         17         18
     1  O    0.000000   0.000000   0.000000  -0.000098   0.000002   0.000000
     2  N   -0.000001   0.000000   0.000001  -0.000467   0.000062  -0.000021
     3  O    0.000000   0.000000   0.000000  -0.004033   0.001193  -0.000110
     4  O   -0.000009   0.000000   0.000046  -0.025317   0.000808   0.000121
     5  C   -0.000724  -0.000111  -0.003631   0.127014  -0.027577   0.001139
     6  C   -0.036730   0.002994  -0.000610  -0.043410  -0.001215  -0.001675
     7  C    0.002626  -0.000102   0.000374  -0.001323   0.000124  -0.000022
     8  O   -0.000050   0.000001  -0.000002  -0.008607   0.000950  -0.000026
     9  N    0.000001   0.000000   0.000000   0.000292  -0.000016   0.000000
    10  O    0.000000   0.000000   0.000000   0.000001   0.000000   0.000000
    11  O    0.000000   0.000000   0.000000   0.000297   0.000003   0.000000
    12  O    0.198268  -0.081981  -0.088586   0.003089   0.000303  -0.002800
    13  N    5.234779   0.379676   0.313631   0.000030   0.000062   0.001427
    14  O    0.379676   8.149180  -0.073979   0.000000   0.000014  -0.000134
    15  O    0.313631  -0.073979   8.284614   0.000057  -0.000025  -0.000095
    16  O    0.000030   0.000000   0.000057   8.437826   0.194361  -0.088041
    17  N    0.000062   0.000014  -0.000025   0.194361   5.214402   0.316508
    18  O    0.001427  -0.000134  -0.000095  -0.088041   0.316508   8.281444
    19  O    0.000002   0.000000   0.000000  -0.082610   0.379833  -0.075217
    20  H   -0.000402  -0.000021   0.005606  -0.026602  -0.003437   0.005990
    21  H   -0.004927   0.000036   0.005831   0.002176  -0.000005  -0.000005
    22  H   -0.000017   0.000001   0.000006   0.000197  -0.000002   0.000000
    23  H   -0.000202  -0.000015   0.000002  -0.000103   0.000001   0.000001
              19         20         21         22         23
     1  O    0.000000   0.000022   0.000002  -0.000004   0.000000
     2  N    0.000003  -0.003417  -0.000207   0.000065   0.000002
     3  O   -0.000015   0.003998   0.000018   0.000004   0.000000
     4  O   -0.000022  -0.025374   0.004467   0.001716  -0.000015
     5  C    0.002308   0.392636  -0.039143  -0.004441   0.004193
     6  C   -0.000065  -0.034803   0.391805  -0.028719  -0.045779
     7  C   -0.000002   0.002545  -0.032980   0.387930   0.403264
     8  O   -0.000015  -0.000054   0.001795  -0.024340  -0.035168
     9  N    0.000003   0.000001  -0.000023  -0.004141   0.000646
    10  O    0.000000   0.000000   0.000001  -0.002696  -0.000204
    11  O    0.000002   0.000003  -0.000013   0.003637   0.000441
    12  O   -0.000044  -0.000490  -0.022789   0.002065   0.000195
    13  N    0.000002  -0.000402  -0.004927  -0.000017  -0.000202
    14  O    0.000000  -0.000021   0.000036   0.000001  -0.000015
    15  O    0.000000   0.005606   0.005831   0.000006   0.000002
    16  O   -0.082610  -0.026602   0.002176   0.000197  -0.000103
    17  N    0.379833  -0.003437  -0.000005  -0.000002   0.000001
    18  O   -0.075217   0.005990  -0.000005   0.000000   0.000001
    19  O    8.156702  -0.000024   0.000001   0.000000   0.000000
    20  H   -0.000024   0.379098  -0.000855  -0.000002  -0.000026
    21  H    0.000001  -0.000855   0.426649  -0.001291  -0.000921
    22  H    0.000000  -0.000002  -0.001291   0.437821  -0.022715
    23  H    0.000000  -0.000026  -0.000921  -0.022715   0.457398
 Mulliken charges:
               1
     1  O   -0.383914
     2  N    0.921686
     3  O   -0.420934
     4  O   -0.525464
     5  C    0.458774
     6  C    0.079244
     7  C   -0.011237
     8  O   -0.423149
     9  N    0.520859
    10  O   -0.269186
    11  O   -0.243768
    12  O   -0.486188
    13  N    0.912561
    14  O   -0.375560
    15  O   -0.443241
    16  O   -0.484728
    17  N    0.923650
    18  O   -0.438484
    19  O   -0.380840
    20  H    0.305608
    21  H    0.270378
    22  H    0.254927
    23  H    0.239007
 Sum of Mulliken charges =   0.00000
 Mulliken charges with hydrogens summed into heavy atoms:
               1
     1  O   -0.383914
     2  N    0.921686
     3  O   -0.420934
     4  O   -0.525464
     5  C    0.764382
     6  C    0.349621
     7  C    0.482697
     8  O   -0.423149
     9  N    0.520859
    10  O   -0.269186
    11  O   -0.243768
    12  O   -0.486188
    13  N    0.912561
    14  O   -0.375560
    15  O   -0.443241
    16  O   -0.484728
    17  N    0.923650
    18  O   -0.438484
    19  O   -0.380840
 Electronic spatial extent (au):  <R**2>=           4604.5416
 Charge=              0.0000 electrons
 Dipole moment (field-independent basis, Debye):
    X=              0.2773    Y=             -1.2084    Z=             -3.4056  Tot=              3.6243
 Quadrupole moment (field-independent basis, Debye-Ang):
   XX=           -126.0289   YY=           -114.7046   ZZ=           -107.3677
   XY=              2.8964   XZ=             -2.9854   YZ=              2.6362
 Traceless Quadrupole moment (field-independent basis, Debye-Ang):
   XX=             -9.9951   YY=              1.3291   ZZ=              8.6660
   XY=              2.8964   XZ=             -2.9854   YZ=              2.6362
 Octapole moment (field-independent basis, Debye-Ang**2):
  XXX=             -8.6287  YYY=            -13.4483  ZZZ=            -20.6291  XYY=             16.5138
  XXY=             20.3708  XXZ=             13.7457  XZZ=             -5.0100  YZZ=            -15.2634
  YYZ=              8.6769  XYZ=              2.7778
 Hexadecapole moment (field-independent basis, Debye-Ang**3):
 XXXX=          -2619.3048 YYYY=          -2180.7508 ZZZZ=          -1088.6543 XXXY=            -16.1271
 XXXZ=              3.0634 YYYX=              9.4345 YYYZ=              5.0506 ZZZX=             -5.6437
 ZZZY=             12.1165 XXYY=           -800.5615 XXZZ=           -572.9905 YYZZ=           -490.8801
 XXYZ=            -10.9014 YYXZ=            -50.6763 ZZXY=             11.6306
 N-N= 1.667229075236D+03 E-N=-6.232508997412D+03  KE= 1.225201918808D+03
 Calling FoFJK, ICntrl=      2127 FMM=F ISym2X=0 I1Cent= 0 IOpClX= 0 NMat=1 NMatS=1 NMatT=0.
 ***** Axes restored to original set *****
 -------------------------------------------------------------------
 Center     Atomic                   Forces (Hartrees/Bohr)
 Number     Number              X              Y              Z
 -------------------------------------------------------------------
      1        8           0.017560410    0.073632362   -0.069946959
      2        7           0.020465176   -0.020458011    0.023916743
      3        8          -0.075864961   -0.038650019    0.031934724
      4        8           0.045804337   -0.000505015   -0.011856178
      5        6          -0.007058469    0.020488715    0.014567954
      6        6          -0.010533676   -0.021521674    0.000398122
      7        6          -0.020878219    0.009081302    0.008359321
      8        8          -0.002661296   -0.057789155   -0.048244627
      9        7          -0.082061567   -0.053733395    0.255307388
     10        8           0.131615391    0.029409313   -0.075934213
     11        8          -0.044880055    0.081015688   -0.124112636
     12        8           0.011626668    0.028734987    0.039249134
     13        7           0.001546566    0.028573193   -0.006651905
     14        8           0.007566375   -0.088507377    0.058566840
     15        8          -0.017747296    0.019109331   -0.080158233
     16        8           0.027329484    0.033102951   -0.000515482
     17        7           0.009542304    0.007113085   -0.031143205
     18        8           0.000359527   -0.076403225   -0.036908971
     19        8          -0.036269529    0.038558712    0.091256127
     20        1          -0.004918947   -0.014973366   -0.015895113
     21        1           0.010512192    0.000557136   -0.012342460
     22        1           0.007564243    0.007041862   -0.012312297
     23        1           0.011381342   -0.003877398    0.002465924
 -------------------------------------------------------------------
 Cartesian Forces:  Max     0.255307388 RMS     0.053439044

 GradGradGradGradGradGradGradGradGradGradGradGradGradGradGradGradGradGrad
 Berny optimization.
 FormGI is forming the generalized inverse of G from B-inverse, IUseBI=4.
 Internal  Forces:  Max     0.145946790 RMS     0.036176558
 Search for a local minimum.
 Step number   1 out of a maximum of  108
 All quantities printed in internal units (Hartrees-Bohrs-Radians)
 Mixed Optimization -- RFO/linear search
 Second derivative matrix not updated -- first step.
 ITU=  0
     Eigenvalues ---    0.00230   0.00230   0.00484   0.01043   0.01139
     Eigenvalues ---    0.01160   0.01207   0.01249   0.01289   0.01348
     Eigenvalues ---    0.02913   0.02927   0.02958   0.04147   0.04699
     Eigenvalues ---    0.04910   0.05563   0.05908   0.06622   0.07278
     Eigenvalues ---    0.07323   0.09050   0.11314   0.13812   0.16931
     Eigenvalues ---    0.17982   0.19877   0.20066   0.20446   0.22032
     Eigenvalues ---    0.24975   0.24999   0.25000   0.25000   0.25000
     Eigenvalues ---    0.25000   0.25000   0.25000   0.25000   0.25000
     Eigenvalues ---    0.25000   0.26787   0.28406   0.33723   0.34000
     Eigenvalues ---    0.34048   0.34061   0.36801   0.40049   0.40491
     Eigenvalues ---    0.40925   0.41570   0.41827   0.42054   0.42606
     Eigenvalues ---    0.43726   0.43974   0.90673   0.90882   0.91388
     Eigenvalues ---    0.92181   0.92233   0.92503
 RFO step:  Lambda=-1.96506030D-01 EMin= 2.30000000D-03
 Linear search not attempted -- first point.
 Maximum step size (   0.300) exceeded in Quadratic search.
    -- Step size scaled by   0.583
 Iteration  1 RMS(Cart)=  0.04890573 RMS(Int)=  0.00341059
 Iteration  2 RMS(Cart)=  0.00403555 RMS(Int)=  0.00143345
 Iteration  3 RMS(Cart)=  0.00003677 RMS(Int)=  0.00143311
 Iteration  4 RMS(Cart)=  0.00000037 RMS(Int)=  0.00143311
 Variable       Old X    -DE/DX   Delta X   Delta X   Delta X     New X
                                 (Linear)    (Quad)   (Total)
    R1        2.31944  -0.10306   0.00000  -0.05368  -0.05368   2.26575
    R2        2.32529  -0.09084   0.00000  -0.04787  -0.04787   2.27742
    R3        2.66784  -0.04279   0.00000  -0.03933  -0.03933   2.62851
    R4        2.71487  -0.02833   0.00000  -0.02765  -0.02765   2.68723
    R5        2.94869  -0.01238   0.00000  -0.01553  -0.01553   2.93315
    R6        2.69475  -0.01988   0.00000  -0.01892  -0.01892   2.67583
    R7        2.07329  -0.02021   0.00000  -0.02195  -0.02195   2.05135
    R8        2.91260  -0.00950   0.00000  -0.01152  -0.01152   2.90108
    R9        2.70892  -0.01597   0.00000  -0.01546  -0.01546   2.69345
   R10        2.07801  -0.01539   0.00000  -0.01679  -0.01679   2.06121
   R11        2.70315  -0.00562   0.00000  -0.00540  -0.00540   2.69774
   R12        2.07227  -0.01363   0.00000  -0.01478  -0.01478   2.05749
   R13        2.07249  -0.01207   0.00000  -0.01310  -0.01310   2.05939
   R14        2.76147  -0.06897   0.00000  -0.07117  -0.07117   2.69030
   R15        2.68854  -0.14595   0.00000  -0.13778  -0.13778   2.55076
   R16        2.69143  -0.14587   0.00000  -0.13822  -0.13822   2.55322
   R17        2.68158  -0.05034   0.00000  -0.04710  -0.04710   2.63448
   R18        2.31801  -0.10636   0.00000  -0.05525  -0.05525   2.26276
   R19        2.32625  -0.08402   0.00000  -0.04436  -0.04436   2.28188
   R20        2.66486  -0.04663   0.00000  -0.04269  -0.04269   2.62216
   R21        2.32300  -0.08446   0.00000  -0.04431  -0.04431   2.27869
   R22        2.31921  -0.10544   0.00000  -0.05490  -0.05490   2.26431
    A1        2.27397  -0.00359   0.00000  -0.00468  -0.00468   2.26929
    A2        1.96647  -0.00221   0.00000  -0.00288  -0.00288   1.96359
    A3        2.04267   0.00580   0.00000   0.00756   0.00756   2.05023
    A4        1.96578   0.01574   0.00000   0.02053   0.02053   1.98631
    A5        1.83563  -0.00964   0.00000  -0.01423  -0.01409   1.82154
    A6        1.92468  -0.01077   0.00000  -0.01994  -0.01984   1.90485
    A7        1.88520   0.00789   0.00000   0.01296   0.01292   1.89812
    A8        1.93060   0.01726   0.00000   0.02470   0.02462   1.95521
    A9        1.90095   0.00361   0.00000   0.01027   0.01027   1.91121
   A10        1.98059  -0.00855   0.00000  -0.01383  -0.01404   1.96655
   A11        1.97578   0.01642   0.00000   0.02486   0.02489   2.00066
   A12        1.96445  -0.00763   0.00000  -0.01204  -0.01206   1.95239
   A13        1.90173  -0.00513   0.00000  -0.00891  -0.00899   1.89273
   A14        1.86274  -0.00458   0.00000  -0.00561  -0.00554   1.85720
   A15        1.82176  -0.00192   0.00000  -0.00064  -0.00062   1.82115
   A16        1.93228   0.00351   0.00000   0.00352   0.00343   1.93571
   A17        1.93125  -0.00100   0.00000  -0.00202  -0.00203   1.92922
   A18        1.90277   0.00260   0.00000   0.00391   0.00389   1.90667
   A19        1.90262  -0.00186   0.00000  -0.00246  -0.00246   1.90016
   A20        1.97708  -0.00482   0.00000  -0.00995  -0.00995   1.96714
   A21        1.86376   0.00289   0.00000   0.00548   0.00548   1.86924
   A22        1.88432   0.00230   0.00000   0.00536   0.00537   1.88970
   A23        1.93685  -0.00453   0.00000  -0.00591  -0.00591   1.93094
   A24        1.90074   0.03775   0.00000   0.06778   0.06192   1.96266
   A25        1.87490   0.00513   0.00000   0.03486   0.02550   1.90040
   A26        1.89146   0.06223   0.00000   0.11309   0.10718   1.99864
   A27        1.98220   0.01188   0.00000   0.01550   0.01550   1.99770
   A28        1.96942  -0.00110   0.00000  -0.00143  -0.00143   1.96799
   A29        2.03493   0.00845   0.00000   0.01102   0.01102   2.04596
   A30        2.27880  -0.00735   0.00000  -0.00959  -0.00959   2.26922
   A31        1.99064   0.01059   0.00000   0.01382   0.01382   2.00446
   A32        2.04480   0.00954   0.00000   0.01257   0.01254   2.05735
   A33        1.96461  -0.00317   0.00000  -0.00402  -0.00404   1.96057
   A34        2.27185  -0.00609   0.00000  -0.00782  -0.00784   2.26401
    D1       -3.12714  -0.00017   0.00000  -0.00042  -0.00042  -3.12756
    D2        3.08509   0.00213   0.00000   0.00596   0.00596   3.09105
    D3       -0.04455   0.00201   0.00000   0.00564   0.00564  -0.03891
    D4       -2.92177   0.00396   0.00000   0.00519   0.00530  -2.91648
    D5        1.27956  -0.00537   0.00000  -0.00556  -0.00571   1.27385
    D6       -0.89381   0.00698   0.00000   0.01592   0.01597  -0.87785
    D7       -1.14085   0.00512   0.00000   0.01204   0.01206  -1.12879
    D8        3.02806   0.00468   0.00000   0.00999   0.01007   3.03812
    D9        0.87774   0.00910   0.00000   0.02013   0.02011   0.89785
   D10        0.93705  -0.00430   0.00000  -0.00709  -0.00720   0.92985
   D11       -1.17723  -0.00475   0.00000  -0.00914  -0.00920  -1.18643
   D12        2.95564  -0.00033   0.00000   0.00100   0.00084   2.95648
   D13        3.12521  -0.00075   0.00000  -0.00044  -0.00035   3.12486
   D14        1.01093  -0.00119   0.00000  -0.00249  -0.00235   1.00858
   D15       -1.13938   0.00322   0.00000   0.00765   0.00769  -1.13169
   D16       -2.62966   0.00292   0.00000   0.00971   0.00953  -2.62013
   D17        1.63035   0.01089   0.00000   0.02437   0.02435   1.65470
   D18       -0.51211  -0.00073   0.00000   0.00222   0.00241  -0.50970
   D19       -1.13069   0.00286   0.00000   0.00513   0.00515  -1.12554
   D20        1.05475  -0.00213   0.00000  -0.00615  -0.00614   1.04861
   D21        3.10787   0.00105   0.00000   0.00112   0.00113   3.10900
   D22        1.04005   0.00063   0.00000   0.00210   0.00211   1.04216
   D23       -3.05769  -0.00436   0.00000  -0.00919  -0.00918  -3.06687
   D24       -1.00458  -0.00118   0.00000  -0.00192  -0.00190  -1.00648
   D25        3.08690   0.00168   0.00000   0.00329   0.00326   3.09017
   D26       -1.01084  -0.00331   0.00000  -0.00799  -0.00802  -1.01886
   D27        1.04227  -0.00013   0.00000  -0.00072  -0.00075   1.04153
   D28       -1.45686   0.00893   0.00000   0.01682   0.01684  -1.44002
   D29        2.64866  -0.00357   0.00000  -0.00275  -0.00275   2.64590
   D30        0.67629  -0.00056   0.00000  -0.00068  -0.00071   0.67559
   D31        2.54032   0.00093   0.00000   0.00145   0.00146   2.54179
   D32        0.39752   0.00179   0.00000   0.00508   0.00505   0.40257
   D33       -1.67446  -0.00015   0.00000   0.00063   0.00064  -1.67382
   D34        0.87730   0.04744   0.00000   0.09221   0.09256   0.96986
   D35       -1.16775  -0.04885   0.00000  -0.09630  -0.09665  -1.26439
   D36       -2.03449  -0.06074   0.00000  -0.14028  -0.14690  -2.18139
   D37       -3.02394  -0.00034   0.00000  -0.00093  -0.00094  -3.02488
   D38        0.11034   0.00013   0.00000   0.00035   0.00036   0.11070
   D39        3.13299   0.00064   0.00000   0.00163   0.00162   3.13461
   D40       -0.06211   0.00315   0.00000   0.00847   0.00849  -0.05362
   D41        3.13919  -0.00102   0.00000  -0.00249  -0.00251   3.13668
   D42       -3.06942  -0.00532   0.00000  -0.01361  -0.01359  -3.08301
         Item               Value     Threshold  Converged?
 Maximum Force            0.145947     0.000450     NO 
 RMS     Force            0.036177     0.000300     NO 
 Maximum Displacement     0.209211     0.001800     NO 
 RMS     Displacement     0.048455     0.001200     NO 
 Predicted change in Energy=-9.399891D-02
 GradGradGradGradGradGradGradGradGradGradGradGradGradGradGradGradGradGrad

                          Input orientation:                          
 ---------------------------------------------------------------------
 Center     Atomic      Atomic             Coordinates (Angstroms)
 Number     Number       Type             X           Y           Z
 ---------------------------------------------------------------------
      1          8           0        1.425492   -2.458001    2.836503
      2          7           0        1.639589   -1.582040    2.046301
      3          8           0        2.683655   -1.092887    1.695505
      4          8           0        0.472520   -1.074062    1.485370
      5          6           0        0.689902    0.010972    0.592296
      6          6           0       -0.722967    0.612401    0.365851
      7          6           0       -1.710640   -0.324061   -0.344314
      8          8           0       -1.270078   -0.601681   -1.673536
      9          7           0       -1.614047   -1.931239   -2.048677
     10          8           0       -2.935085   -2.177409   -1.921270
     11          8           0       -0.816176   -2.794024   -1.381978
     12          8           0       -0.673112    1.807594   -0.409099
     13          7           0       -0.368531    2.956080    0.320112
     14          8           0       -0.459406    3.956349   -0.331788
     15          8           0       -0.067262    2.810105    1.480298
     16          8           0        1.255777   -0.482197   -0.608370
     17          7           0        2.088820    0.409086   -1.269471
     18          8           0        2.209730    1.516402   -0.807667
     19          8           0        2.546411   -0.055432   -2.274741
     20          1           0        1.322002    0.744989    1.082229
     21          1           0       -1.178975    0.798270    1.339114
     22          1           0       -1.842232   -1.225608    0.251787
     23          1           0       -2.675392    0.176394   -0.424456
 ---------------------------------------------------------------------
                    Distance matrix (angstroms):
                    1          2          3          4          5
     1  O    0.000000
     2  N    1.198986   0.000000
     3  O    2.179080   1.205157   0.000000
     4  O    2.156155   1.390947   2.221178   0.000000
     5  C    3.416634   2.356633   2.531922   1.422018   0.000000
     6  C    4.488582   3.636090   4.034980   2.350887   1.552157
     7  C    4.950416   4.303670   4.905281   2.945578   2.598478
     8  O    5.572475   4.823323   5.217636   3.638472   3.057917
     9  N    5.777652   5.241843   5.761247   4.192612   4.006882
    10  O    6.459859   6.084712   6.769601   4.943111   4.924181
    11  O    4.788901   4.387800   4.961209   3.583391   3.746203
    12  O    5.756160   4.781965   4.910197   3.633927   2.467478
    13  N    6.234021   5.254217   5.253730   4.278696   3.141341
    14  O    7.398297   6.382384   6.283593   5.429142   4.211987
    15  O    5.640970   4.746012   4.779875   3.921497   3.032654
    16  O    3.974890   2.899006   2.778420   2.312475   1.415990
    17  N    5.051655   3.893679   3.376512   3.521549   2.362550
    18  O    5.448935   4.250945   3.646761   3.871230   2.556578
    19  O    5.757917   4.671644   4.105850   4.413283   3.416274
    20  H    3.653401   2.538771   2.368121   2.047704   1.085526
    21  H    4.430432   3.756366   4.315484   2.500891   2.161082
    22  H    4.344833   3.933243   4.752430   2.627312   2.838447
    23  H    5.864396   5.274067   5.901245   3.888499   3.519425
                    6          7          8          9         10
     6  C    0.000000
     7  C    1.535185   0.000000
     8  O    2.435657   1.427585   0.000000
     9  N    3.618573   2.344612   1.423647   0.000000
    10  O    4.231717   2.724143   2.305762   1.349805   0.000000
    11  O    3.829795   2.824452   2.257743   1.351104   2.271745
    12  O    1.425314   2.371627   2.785637   4.189564   4.825291
    13  N    2.370769   3.605834   4.176730   5.572105   6.161469
    14  O    3.426099   4.459557   4.820074   6.240560   6.802824
    15  O    2.549871   3.981569   4.799345   6.109546   6.683590
    16  O    2.462251   2.982341   2.743865   3.522796   4.707523
    17  N    3.259104   3.978607   3.530880   4.449214   5.688095
    18  O    3.285586   4.355606   4.164741   5.295999   6.430667
    19  O    4.255297   4.682007   3.901976   4.569372   5.888507
    20  H    2.170870   3.517785   4.015798   5.058176   5.973626
    21  H    1.090748   2.091943   3.323285   4.372257   4.750652
    22  H    2.155004   1.088779   2.103215   2.417047   2.611978
    23  H    2.150965   1.089782   2.034824   2.864727   2.801478
                   11         12         13         14         15
    11  O    0.000000
    12  O    4.705513   0.000000
    13  N    6.013418   1.394108   0.000000
    14  O    6.840886   2.160739   1.197401   0.000000
    15  O    6.337173   2.223039   1.207520   2.179750   0.000000
    16  O    3.199376   3.000578   3.914359   4.766450   4.117307
    17  N    4.325688   3.213150   3.879758   4.467189   4.239671
    18  O    5.297709   2.924796   3.161011   3.647477   3.477520
    19  O    4.427629   4.161348   4.929437   5.376280   5.398417
    20  H    4.813392   2.708074   2.885766   3.935186   2.520558
    21  H    4.521122   2.081076   2.520184   3.644606   2.302893
    22  H    2.486344   3.317217   4.434296   5.394947   4.576761
    23  H    3.632755   2.582668   3.688176   4.382607   4.167357
                   16         17         18         19         20
    16  O    0.000000
    17  N    1.387589   0.000000
    18  O    2.223544   1.205832   0.000000
    19  O    2.150502   1.198221   2.176309   0.000000
    20  H    2.090095   2.496264   2.225948   3.661843   0.000000
    21  H    3.370505   4.199364   4.075255   5.259967   2.514700
    22  H    3.300029   4.521020   5.005943   5.197388   3.819066
    23  H    3.990195   4.844162   5.080048   5.544774   4.309589
                   21         22         23
    21  H    0.000000
    22  H    2.391292   0.000000
    23  H    2.395031   1.765522   0.000000
 Stoichiometry    C3H4N4O12
 Framework group  C1[X(C3H4N4O12)]
 Deg. of freedom    63
 Full point group                 C1      NOp   1
 Largest Abelian subgroup         C1      NOp   1
 Largest concise Abelian subgroup C1      NOp   1
                         Standard orientation:                         
 ---------------------------------------------------------------------
 Center     Atomic      Atomic             Coordinates (Angstroms)
 Number     Number       Type             X           Y           Z
 ---------------------------------------------------------------------
      1          8           0       -1.340486    3.459250   -1.508934
      2          7           0       -0.621118    2.845362   -0.771901
      3          8           0        0.057075    3.229836    0.147140
      4          8           0       -0.585250    1.487585   -1.071715
      5          6           0        0.310065    0.742980   -0.255559
      6          6           0        0.433651   -0.628653   -0.971481
      7          6           0       -0.866112   -1.444127   -1.020582
      8          8           0       -1.276352   -1.812331    0.296280
      9          7           0       -2.696569   -1.824700    0.394265
     10          8           0       -3.269917   -2.627096   -0.527368
     11          8           0       -3.146592   -0.550771    0.386136
     12          8           0        1.409806   -1.463679   -0.353927
     13          7           0        2.721809   -1.208175   -0.750038
     14          8           0        3.501085   -2.005633   -0.313506
     15          8           0        2.906945   -0.252612   -1.464691
     16          8           0       -0.241053    0.616638    1.042645
     17          7           0        0.691853    0.524845    2.065711
     18          8           0        1.859129    0.502730    1.764038
     19          8           0        0.177493    0.425116    3.143311
     20          1           0        1.275526    1.239212   -0.253844
     21          1           0        0.680479   -0.450278   -2.018853
     22          1           0       -1.626288   -0.875937   -1.554186
     23          1           0       -0.682218   -2.367776   -1.568925
 ---------------------------------------------------------------------
 Rotational constants (GHZ):           0.3768701           0.3407737           0.2594672
 Standard basis: 6-31G(d) (6D, 7F)
 There are   293 symmetry adapted cartesian basis functions of A   symmetry.
 There are   293 symmetry adapted basis functions of A   symmetry.
   293 basis functions,   548 primitive gaussians,   293 cartesian basis functions
    73 alpha electrons       73 beta electrons
       nuclear repulsion energy      1682.1639847097 Hartrees.
 NAtoms=   23 NActive=   23 NUniq=   23 SFac= 1.00D+00 NAtFMM=   60 NAOKFM=F Big=F
 Integral buffers will be    131072 words long.
 Raffenetti 1 integral format.
 Two-electron integral symmetry is turned on.
 One-electron integrals computed using PRISM.
 NBasis=   293 RedAO= T EigKep=  1.91D-03  NBF=   293
 NBsUse=   293 1.00D-06 EigRej= -1.00D+00 NBFU=   293
 Initial guess from the checkpoint file:  "C:\g16w\Scratch\Gau-11964.chk"
 B after Tr=     0.000000    0.000000    0.000000
         Rot=    0.999089    0.009919    0.002601    0.041421 Ang=   4.89 deg.
 ExpMin= 1.61D-01 ExpMax= 5.48D+03 ExpMxC= 8.25D+02 IAcc=3 IRadAn=         5 AccDes= 0.00D+00
 Harris functional with IExCor=  205 and IRadAn=       5 diagonalized for initial guess.
 HarFok:  IExCor=  205 AccDes= 0.00D+00 IRadAn=         5 IDoV= 1 UseB2=F ITyADJ=14
 ICtDFT=  3500011 ScaDFX=  1.000000  1.000000  1.000000  1.000000
 FoFCou: FMM=F IPFlag=           0 FMFlag=      100000 FMFlg1=           0
         NFxFlg=           0 DoJE=T BraDBF=F KetDBF=T FulRan=T
         wScrn=  0.000000 ICntrl=       500 IOpCl=  0 I1Cent=   200000004 NGrid=           0
         NMat0=    1 NMatS0=      1 NMatT0=    0 NMatD0=    1 NMtDS0=    0 NMtDT0=    0
 Petite list used in FoFCou.
 Requested convergence on RMS density matrix=1.00D-08 within 128 cycles.
 Requested convergence on MAX density matrix=1.00D-06.
 Requested convergence on             energy=1.00D-06.
 No special actions if energy rises.
 Integral accuracy reduced to 1.0D-05 until final iterations.
 Initial convergence to 1.0D-05 achieved.  Increase integral accuracy.
 SCF Done:  E(RHF) =  -1231.21022501     A.U. after   21 cycles
            NFock= 21  Conv=0.31D-08     -V/T= 2.0040
 Calling FoFJK, ICntrl=      2127 FMM=F ISym2X=0 I1Cent= 0 IOpClX= 0 NMat=1 NMatS=1 NMatT=0.
 ***** Axes restored to original set *****
 -------------------------------------------------------------------
 Center     Atomic                   Forces (Hartrees/Bohr)
 Number     Number              X              Y              Z
 -------------------------------------------------------------------
      1        8           0.010832935    0.042194279   -0.039585529
      2        7           0.008393782   -0.013630986    0.016099377
      3        8          -0.043788347   -0.020618519    0.016165482
      4        8           0.030812622   -0.000065392   -0.009719686
      5        6          -0.008234997    0.012638124    0.012064117
      6        6          -0.007365467   -0.018455301   -0.002485031
      7        6          -0.015167039    0.007994744    0.007947512
      8        8          -0.002384392   -0.040878102   -0.048162344
      9        7          -0.068548329   -0.078189058    0.227440000
     10        8           0.133992597    0.034222945   -0.061898376
     11        8          -0.059373678    0.083200975   -0.113716018
     12        8           0.008674547    0.020035796    0.027100536
     13        7          -0.000578885    0.015539678   -0.010484911
     14        8           0.005616509   -0.049593417    0.034301234
     15        8          -0.011023643    0.008363051   -0.043842376
     16        8           0.015968683    0.023750320    0.000579293
     17        7           0.003910740   -0.001891475   -0.022006253
     18        8          -0.000471357   -0.042689903   -0.017186345
     19        8          -0.019933015    0.023448379    0.052011700
     20        1          -0.001825828   -0.008454097   -0.010624760
     21        1           0.007466267    0.002128389   -0.006876036
     22        1           0.005990843    0.003006124   -0.008645979
     23        1           0.007035450   -0.002056554    0.001524394
 -------------------------------------------------------------------
 Cartesian Forces:  Max     0.227440000 RMS     0.044484237

 GradGradGradGradGradGradGradGradGradGradGradGradGradGradGradGradGradGrad
 Berny optimization.
 Using GEDIIS/GDIIS optimizer.
 FormGI is forming the generalized inverse of G from B-inverse, IUseBI=4.
 Internal  Forces:  Max     0.144305218 RMS     0.027944333
 Search for a local minimum.
 Step number   2 out of a maximum of  108
 All quantities printed in internal units (Hartrees-Bohrs-Radians)
 Mixed Optimization -- RFO/linear search
 Update second derivatives using D2CorX and points    1    2
 DE= -1.04D-01 DEPred=-9.40D-02 R= 1.10D+00
 TightC=F SS=  1.41D+00  RLast= 3.59D-01 DXNew= 5.0454D-01 1.0783D+00
 Trust test= 1.10D+00 RLast= 3.59D-01 DXMaxT set to 5.05D-01
 ITU=  1  0
 Use linear search instead of GDIIS.
 Linear search step of   0.591 exceeds DXMaxT=   0.505 but not scaled.
 Quartic linear search produced a step of  2.00000.
 Iteration  1 RMS(Cart)=  0.08639517 RMS(Int)=  0.01890238
 Iteration  2 RMS(Cart)=  0.01707466 RMS(Int)=  0.00795027
 Iteration  3 RMS(Cart)=  0.00017821 RMS(Int)=  0.00794928
 Iteration  4 RMS(Cart)=  0.00000361 RMS(Int)=  0.00794927
 Iteration  5 RMS(Cart)=  0.00000011 RMS(Int)=  0.00794927
 Variable       Old X    -DE/DX   Delta X   Delta X   Delta X     New X
                                 (Linear)    (Quad)   (Total)
    R1        2.26575  -0.05885  -0.10736   0.00000  -0.10736   2.15839
    R2        2.27742  -0.05101  -0.09575   0.00000  -0.09575   2.18167
    R3        2.62851  -0.02646  -0.07866   0.00000  -0.07866   2.54985
    R4        2.68723  -0.01767  -0.05529   0.00000  -0.05529   2.63193
    R5        2.93315  -0.00996  -0.03107   0.00000  -0.03107   2.90209
    R6        2.67583  -0.01248  -0.03783   0.00000  -0.03783   2.63800
    R7        2.05135  -0.01158  -0.04389   0.00000  -0.04389   2.00745
    R8        2.90108  -0.00752  -0.02303   0.00000  -0.02303   2.87805
    R9        2.69345  -0.00849  -0.03093   0.00000  -0.03093   2.66252
   R10        2.06121  -0.00889  -0.03359   0.00000  -0.03359   2.02763
   R11        2.69774  -0.00195  -0.01081   0.00000  -0.01081   2.68694
   R12        2.05749  -0.00795  -0.02956   0.00000  -0.02956   2.02794
   R13        2.05939  -0.00728  -0.02620   0.00000  -0.02620   2.03319
   R14        2.69030  -0.05176  -0.14234   0.00000  -0.14234   2.54797
   R15        2.55076  -0.14322  -0.27556   0.00000  -0.27556   2.27520
   R16        2.55322  -0.14431  -0.27643   0.00000  -0.27643   2.27679
   R17        2.63448  -0.03295  -0.09420   0.00000  -0.09420   2.54028
   R18        2.26276  -0.06053  -0.11049   0.00000  -0.11049   2.15227
   R19        2.28188  -0.04589  -0.08873   0.00000  -0.08873   2.19316
   R20        2.62216  -0.02958  -0.08539   0.00000  -0.08539   2.53677
   R21        2.27869  -0.04583  -0.08861   0.00000  -0.08861   2.19008
   R22        2.26431  -0.06034  -0.10979   0.00000  -0.10979   2.15452
    A1        2.26929  -0.00091  -0.00936   0.00000  -0.00936   2.25993
    A2        1.96359  -0.00032  -0.00576   0.00000  -0.00576   1.95783
    A3        2.05023   0.00124   0.01513   0.00000   0.01513   2.06536
    A4        1.98631   0.01242   0.04106   0.00000   0.04106   2.02738
    A5        1.82154  -0.00437  -0.02818   0.00000  -0.02725   1.79430
    A6        1.90485  -0.00727  -0.03967   0.00000  -0.03898   1.86586
    A7        1.89812   0.00541   0.02583   0.00000   0.02558   1.92370
    A8        1.95521   0.00899   0.04923   0.00000   0.04866   2.00387
    A9        1.91121   0.00254   0.02054   0.00000   0.02045   1.93166
   A10        1.96655  -0.00529  -0.02808   0.00000  -0.02927   1.93728
   A11        2.00066   0.00953   0.04977   0.00000   0.04991   2.05057
   A12        1.95239  -0.00526  -0.02412   0.00000  -0.02425   1.92814
   A13        1.89273  -0.00346  -0.01799   0.00000  -0.01848   1.87425
   A14        1.85720  -0.00208  -0.01108   0.00000  -0.01062   1.84658
   A15        1.82115  -0.00004  -0.00123   0.00000  -0.00107   1.82008
   A16        1.93571   0.00180   0.00686   0.00000   0.00636   1.94207
   A17        1.92922  -0.00180  -0.00406   0.00000  -0.00409   1.92513
   A18        1.90667   0.00254   0.00779   0.00000   0.00769   1.91435
   A19        1.90016  -0.00135  -0.00492   0.00000  -0.00493   1.89523
   A20        1.96714  -0.00403  -0.01989   0.00000  -0.01988   1.94726
   A21        1.86924   0.00283   0.01097   0.00000   0.01100   1.88023
   A22        1.88970   0.00192   0.01074   0.00000   0.01078   1.90048
   A23        1.93094  -0.00402  -0.01182   0.00000  -0.01182   1.91911
   A24        1.96266   0.02071   0.12385   0.00000   0.08355   2.04621
   A25        1.90040   0.00669   0.05100   0.00000   0.00227   1.90267
   A26        1.99864   0.04617   0.21435   0.00000   0.17859   2.17723
   A27        1.99770   0.01037   0.03100   0.00000   0.03100   2.02870
   A28        1.96799   0.00065  -0.00286   0.00000  -0.00286   1.96513
   A29        2.04596   0.00293   0.02205   0.00000   0.02205   2.06800
   A30        2.26922  -0.00358  -0.01917   0.00000  -0.01917   2.25004
   A31        2.00446   0.00840   0.02764   0.00000   0.02764   2.03210
   A32        2.05735   0.00231   0.02509   0.00000   0.02495   2.08230
   A33        1.96057   0.00030  -0.00809   0.00000  -0.00822   1.95234
   A34        2.26401  -0.00242  -0.01569   0.00000  -0.01583   2.24818
    D1       -3.12756  -0.00012  -0.00084   0.00000  -0.00083  -3.12839
    D2        3.09105   0.00227   0.01191   0.00000   0.01192   3.10297
    D3       -0.03891   0.00217   0.01129   0.00000   0.01128  -0.02763
    D4       -2.91648   0.00240   0.01059   0.00000   0.01120  -2.90528
    D5        1.27385  -0.00211  -0.01142   0.00000  -0.01229   1.26156
    D6       -0.87785   0.00557   0.03193   0.00000   0.03219  -0.84565
    D7       -1.12879   0.00396   0.02412   0.00000   0.02424  -1.10455
    D8        3.03812   0.00370   0.02013   0.00000   0.02060   3.05873
    D9        0.89785   0.00726   0.04021   0.00000   0.04004   0.93789
   D10        0.92985  -0.00277  -0.01441   0.00000  -0.01507   0.91478
   D11       -1.18643  -0.00302  -0.01839   0.00000  -0.01871  -1.20514
   D12        2.95648   0.00053   0.00168   0.00000   0.00073   2.95722
   D13        3.12486  -0.00119  -0.00071   0.00000  -0.00022   3.12464
   D14        1.00858  -0.00144  -0.00469   0.00000  -0.00386   1.00472
   D15       -1.13169   0.00211   0.01539   0.00000   0.01558  -1.11611
   D16       -2.62013   0.00201   0.01906   0.00000   0.01794  -2.60219
   D17        1.65470   0.00664   0.04871   0.00000   0.04862   1.70332
   D18       -0.50970   0.00034   0.00483   0.00000   0.00604  -0.50365
   D19       -1.12554   0.00266   0.01029   0.00000   0.01040  -1.11514
   D20        1.04861  -0.00191  -0.01228   0.00000  -0.01220   1.03641
   D21        3.10900   0.00108   0.00227   0.00000   0.00237   3.11137
   D22        1.04216   0.00068   0.00422   0.00000   0.00432   1.04648
   D23       -3.06687  -0.00389  -0.01835   0.00000  -0.01829  -3.08516
   D24       -1.00648  -0.00090  -0.00380   0.00000  -0.00372  -1.01020
   D25        3.09017   0.00179   0.00653   0.00000   0.00636   3.09653
   D26       -1.01886  -0.00278  -0.01604   0.00000  -0.01624  -1.03510
   D27        1.04153   0.00021  -0.00150   0.00000  -0.00167   1.03985
   D28       -1.44002   0.00575   0.03369   0.00000   0.03385  -1.40617
   D29        2.64590  -0.00134  -0.00551   0.00000  -0.00552   2.64038
   D30        0.67559  -0.00104  -0.00142   0.00000  -0.00156   0.67403
   D31        2.54179   0.00111   0.00293   0.00000   0.00302   2.54481
   D32        0.40257   0.00200   0.01010   0.00000   0.00996   0.41253
   D33       -1.67382   0.00016   0.00128   0.00000   0.00133  -1.67249
   D34        0.96986   0.03999   0.18512   0.00000   0.17738   1.14724
   D35       -1.26439  -0.04196  -0.19329   0.00000  -0.18555  -1.44994
   D36       -2.18139  -0.06472  -0.29380   0.00000  -0.32181  -2.50319
   D37       -3.02488  -0.00064  -0.00188   0.00000  -0.00192  -3.02681
   D38        0.11070  -0.00030   0.00071   0.00000   0.00075   0.11145
   D39        3.13461   0.00044   0.00325   0.00000   0.00321   3.13783
   D40       -0.05362   0.00209   0.01698   0.00000   0.01711  -0.03651
   D41        3.13668  -0.00144  -0.00502   0.00000  -0.00515   3.13153
   D42       -3.08301  -0.00437  -0.02718   0.00000  -0.02708  -3.11009
         Item               Value     Threshold  Converged?
 Maximum Force            0.144305     0.000450     NO 
 RMS     Force            0.027944     0.000300     NO 
 Maximum Displacement     0.336063     0.001800     NO 
 RMS     Displacement     0.093466     0.001200     NO 
 Predicted change in Energy=-1.381976D-01
 GradGradGradGradGradGradGradGradGradGradGradGradGradGradGradGradGradGrad

                          Input orientation:                          
 ---------------------------------------------------------------------
 Center     Atomic      Atomic             Coordinates (Angstroms)
 Number     Number       Type             X           Y           Z
 ---------------------------------------------------------------------
      1          8           0        1.394965   -2.393002    2.738229
      2          7           0        1.630636   -1.537717    2.018854
      3          8           0        2.648934   -1.066372    1.747290
      4          8           0        0.518594   -1.036155    1.442250
      5          6           0        0.706002    0.044609    0.583993
      6          6           0       -0.721290    0.577588    0.391121
      7          6           0       -1.730824   -0.343567   -0.281065
      8          8           0       -1.336121   -0.614872   -1.619835
      9          7           0       -1.688405   -1.871727   -1.957762
     10          8           0       -2.865642   -2.117381   -2.015604
     11          8           0       -0.846220   -2.635900   -1.559815
     12          8           0       -0.706889    1.757704   -0.378456
     13          7           0       -0.396897    2.890214    0.276035
     14          8           0       -0.519350    3.818146   -0.372899
     15          8           0       -0.055803    2.814327    1.382749
     16          8           0        1.306069   -0.455177   -0.573101
     17          7           0        2.130650    0.378605   -1.226493
     18          8           0        2.274289    1.458895   -0.832185
     19          8           0        2.584460   -0.110984   -2.150743
     20          1           0        1.320937    0.777632    1.045524
     21          1           0       -1.132238    0.753890    1.366475
     22          1           0       -1.833372   -1.245968    0.290581
     23          1           0       -2.682485    0.157213   -0.315143
 ---------------------------------------------------------------------
                    Distance matrix (angstroms):
                    1          2          3          4          5
     1  O    0.000000
     2  N    1.142171   0.000000
     3  O    2.077100   1.154489   0.000000
     4  O    2.070899   1.349324   2.152281   0.000000
     5  C    3.325259   2.327558   2.522404   1.392759   0.000000
     6  C    4.337264   3.557469   3.987506   2.290491   1.535718
     7  C    4.804881   4.244412   4.880466   2.917082   2.614790
     8  O    5.441810   4.784699   5.236606   3.604692   3.076043
     9  N    5.641918   5.190479   5.760948   4.138732   3.983221
    10  O    6.389654   6.068722   6.758294   4.957707   4.918206
    11  O    4.853359   4.488618   5.061270   3.665281   3.767019
    12  O    5.599989   4.697969   4.873987   3.552805   2.420179
    13  N    6.097995   5.172512   5.205406   4.196970   3.067360
    14  O    7.205698   6.247254   6.196106   5.285483   4.081264
    15  O    5.573001   4.710520   4.744293   3.893544   2.981559
    16  O    3.837705   2.827626   2.749738   2.240378   1.395971
    17  N    4.893062   3.801918   3.346634   3.423808   2.327883
    18  O    5.325240   4.185976   3.629190   3.805364   2.542694
    19  O    5.524903   4.508979   4.013924   4.246569   3.321385
    20  H    3.594948   2.530637   2.378319   2.022614   1.062298
    21  H    4.262792   3.648360   4.213744   2.436237   2.120019
    22  H    4.210561   3.882189   4.716495   2.627185   2.863581
    23  H    5.696690   5.188771   5.845923   3.841804   3.507559
                    6          7          8          9         10
     6  C    0.000000
     7  C    1.522996   0.000000
     8  O    2.417420   1.421866   0.000000
     9  N    3.528697   2.269006   1.348326   0.000000
    10  O    4.201598   2.728160   2.180276   1.203985   0.000000
    11  O    3.761417   2.769930   2.080422   1.204823   2.134168
    12  O    1.408947   2.339502   2.750649   4.078033   4.728293
    13  N    2.338101   3.542183   4.094153   5.416080   6.035091
    14  O    3.335525   4.335430   4.676923   6.021057   6.590451
    15  O    2.535587   3.942875   4.734356   5.981931   6.615568
    16  O    2.471136   3.052943   2.846458   3.590373   4.716664
    17  N    3.284788   4.040588   3.627701   4.492653   5.640530
    18  O    3.353607   4.426458   4.237448   5.297444   6.372529
    19  O    4.226487   4.708659   3.988324   4.625455   5.809261
    20  H    2.153823   3.511434   4.012874   5.009487   5.939617
    21  H    1.072975   2.068116   3.291371   4.272439   4.763124
[...]
 777,-0.48406146,0.29273095,-0.00473586,0.58431715,-0.00020636,0.000696
 52,-0.00047629,0.00108163,-0.00157229,0.00077803,-0.00031128,0.0005129
 9,-0.00005280,-0.00077610,0.00138294,0.00011200,0.00125945,-0.00204871
 ,-0.00219957,-0.00033477,-0.00057058,-0.00114264,-0.00123110,-0.000860
 17,-0.00076579,0.00082677,0.00100238,0.00143051,-0.00042121,-0.0007506
 7,-0.00175498,0.00007930,0.00020115,0.00052149,-0.00006519,0.00037250,
 0.00111953,0.00292057,0.01133625,0.03212599,-0.01967418,0.32512082,-0.
 44981277,0.04294226,-0.41043595,0.55661824,0.00018110,0.00047298,-0.00
 025795,-0.00058794,-0.00138476,0.00037325,0.00042988,0.00061843,-0.000
 07408,0.00113475,0.00126850,0.00035487,-0.00390096,-0.00138393,-0.0015
 0182,-0.00166490,0.00188888,-0.00382610,0.00063583,0.00043528,-0.00008
 909,-0.00027070,-0.00076922,-0.00045382,0.00033234,0.00066769,0.000605
 13,-0.00015780,-0.00019809,-0.00010883,0.00001731,-0.00025044,-0.00033
 978,0.02365213,-0.02306665,-0.02400021,-0.14426316,-0.01903873,-0.1067
 9073,0.03965507,0.01256115,-0.02558192,0.08384314,0.00052318,-0.000818
 11,0.00082292,-0.00249488,0.00123229,-0.00185109,0.00105260,-0.0001840
 4,0.00048525,0.00180401,-0.00206729,0.00113859,-0.00160385,0.00174154,
 0.00119563,-0.00414583,0.00144508,-0.00642271,0.00229582,0.00129115,-0
 .00064038,-0.00168588,-0.00239193,-0.00184679,0.00176214,0.00222018,0.
 00231764,-0.00079534,-0.00070600,-0.00047444,-0.00014257,-0.00081901,-
 0.00137583,-0.02323508,-0.02169593,-0.07071913,-0.01546173,-0.17685831
 ,-0.03493378,0.01319786,0.02846248,0.07666056,0.02879129,0.17961777,0.
 00026071,0.00036586,0.00001952,-0.00082469,-0.00187503,-0.00022000,0.0
 0055019,0.00080204,0.00022253,0.00173511,0.00067175,0.00155525,-0.0026
 6460,-0.00311796,-0.00219498,0.00200655,0.01426698,-0.01695783,-0.0011
 8038,-0.00206539,0.00238213,0.00051278,0.00021743,0.00103254,0.0006412
 5,0.00106041,0.00032642,-0.00055897,-0.00037530,0.00009670,-0.00010015
 ,-0.00015102,0.00029528,-0.02326294,-0.06455765,-0.04053257,-0.1109658
 7,-0.06018983,-0.63685974,-0.02641443,0.07630553,-0.14038192,0.1606951
 9,0.04144433,0.82383161,0.00434989,-0.00138473,0.00197153,-0.02126466,
 -0.00051628,-0.00620578,0.00793074,0.00289662,-0.00338639,0.00159634,-
 0.01420240,0.04107356,-0.10572321,0.01788324,0.04242013,-0.01647800,0.
 01076967,0.04982169,0.00316199,0.00123717,0.00089775,-0.00717803,-0.00
 502075,-0.00591156,0.00090061,0.00484395,0.00586853,-0.00105794,-0.001
 48825,-0.00109811,0.00034301,-0.00145541,-0.00277113,0.00341536,0.0034
 4620,-0.00020641,-0.00323374,-0.00929613,0.00176740,0.00070496,0.00396
 676,-0.00208702,0.00141901,0.00231550,-0.00028980,0.32836788,0.0008193
 4,-0.00226401,0.00057324,-0.00460872,0.00529133,-0.00588933,0.00093132
 ,0.00023391,0.00344311,-0.01880225,0.00539126,0.04538011,-0.00944486,-
 0.14182990,-0.06832266,0.00686232,-0.00163135,-0.00523167,0.00067842,-
 0.00068369,-0.00006564,-0.00256391,0.00013976,-0.00113848,0.00065564,0
 .00100048,0.00107312,-0.00045385,-0.00032775,-0.00005709,-0.00011313,-
 0.00008587,-0.00032626,-0.00004469,0.00381460,-0.00245564,-0.00181314,
 -0.00183686,-0.00172509,0.00042513,0.00065585,0.00003231,0.00106844,-0
 .00002033,0.00101704,0.11375686,0.35771153,-0.00318301,0.00465742,-0.0
 0264218,0.01599274,-0.00822356,0.00758621,-0.00512482,0.00000142,-0.00
 397225,0.01550617,0.01947052,-0.05440666,0.03415398,-0.09938741,-0.184
 81013,0.00924234,0.00285080,-0.01331483,0.00011676,-0.00264713,-0.0024
 6296,-0.00128580,0.00076397,0.00255033,0.00066892,-0.00113389,-0.00306
 966,-0.00092304,-0.00004272,0.00114131,-0.00068525,0.00073678,0.002043
 92,-0.00249985,-0.00255343,0.00361642,0.00091560,0.00405939,-0.0049212
 4,-0.00044086,-0.00279423,0.00250282,0.00079519,-0.00177050,0.00255015
 ,-0.21241657,0.08587827,0.42263196,-0.00403412,0.00388601,-0.00336518,
 0.02033056,-0.00679878,0.01159916,-0.00785151,-0.00016721,-0.00223579,
 -0.00301113,0.01128862,-0.02496794,-0.04442740,0.00335662,0.05305972,-
 0.00379449,0.00333640,-0.00209176,-0.00126641,-0.00216251,-0.00066072,
 0.00278182,0.00307858,0.00365168,-0.00256676,-0.00567792,-0.00723506,0
 .00135978,0.00172597,0.00141533,-0.00015977,0.00180100,0.00338596,0.00
 118912,-0.00715684,-0.00117663,0.00242521,0.01403595,-0.00072838,-0.00
 071844,-0.00513859,0.00249311,-0.00070279,-0.00337713,-0.00017352,-0.1
 2893485,-0.04570537,0.03084174,0.63908342,-0.00129181,0.00103257,-0.00
 107418,0.00489966,-0.00148158,0.00735254,-0.00146352,-0.00192984,-0.00
 345800,-0.00313651,0.00033933,-0.01409538,0.00614112,0.03160094,0.0482
 3163,0.00314559,0.00659738,-0.01816349,-0.00165682,0.00035931,0.001983
 81,0.00177810,0.00002653,0.00044935,-0.00352537,-0.00131656,0.00021184
 ,0.00198848,0.00084013,-0.00066529,0.00124412,-0.00011228,-0.00045936,
 -0.00615556,-0.00783015,0.00318587,0.01097649,0.00675588,-0.00314563,-
 0.00248646,-0.00455832,0.00302566,-0.00321719,-0.00258095,-0.00029091,
 -0.04512527,-0.18808306,-0.02847830,-0.04896744,1.03125864,-0.00049890
 ,-0.00560663,0.00350281,0.00165090,0.01117451,-0.00724277,-0.00156141,
 -0.00476566,0.00339064,0.00372678,-0.00489570,-0.00422459,0.03443044,0
 .03797276,-0.02386855,0.00303154,-0.00308478,0.00216508,0.00089090,0.0
 0272372,0.00225823,-0.00283967,-0.00317774,-0.00484955,-0.00055575,0.0
 0467861,0.00814972,0.00033843,-0.00107909,-0.00207601,0.00122303,-0.00
 170954,-0.00419100,-0.00230010,0.00267220,0.00013621,0.00367104,-0.007
 19343,0.00375657,-0.00050805,0.00273839,-0.00215707,-0.00179932,0.0016
 6031,-0.00255940,0.03023374,-0.03946421,-0.13714435,-0.32933292,0.3898
 0138,0.84677436,0.00117533,-0.00046216,0.00069411,-0.00581383,0.001299
 78,-0.00301731,0.00256516,0.00052503,0.00037855,0.00022859,-0.00384401
 ,0.00382998,0.00425536,-0.00371437,-0.00422800,0.00156730,0.00067574,-
 0.00015938,0.00040817,0.00037741,0.00025575,-0.00073969,-0.00069260,-0
 .00091020,0.00066673,0.00132434,0.00163955,-0.00031174,-0.00039704,-0.
 00032586,0.00002130,-0.00041602,-0.00078406,-0.00340293,0.00188761,0.0
 0089001,-0.00033028,-0.00477581,-0.00068039,0.00013149,0.00111332,-0.0
 0028775,0.00008559,0.00090507,0.00015929,-0.00291702,-0.06450541,0.001
 81898,-0.15315127,-0.04658288,0.00997508,0.12361475,0.00088633,0.00015
 725,0.00029747,-0.00433116,-0.00027102,-0.00334502,0.00164953,0.001378
 06,0.00081402,0.00074279,0.00021430,0.00648308,0.00693608,-0.01231837,
 -0.02090313,-0.00049600,-0.00452251,0.00578549,0.00088290,-0.00075876,
 -0.00160284,-0.00119019,0.00041957,-0.00000530,0.00201099,0.00050842,-
 0.00056552,-0.00116450,-0.00041517,0.00053742,-0.00074794,0.00020549,0
 .00055572,0.00324484,0.00429630,-0.00168528,-0.00634009,-0.00400921,0.
 00114354,0.00156978,0.00259351,-0.00170576,0.00236651,0.00135772,0.000
 57418,-0.06116447,-0.06755765,0.01160534,-0.06139025,-0.59745904,-0.16
 981534,0.07298353,0.75218744,0.00023303,0.00178083,-0.00111658,-0.0003
 0618,-0.00374375,0.00124881,0.00064221,0.00168602,-0.00030512,0.001057
 44,0.00449446,0.00205693,0.00223807,-0.00308971,-0.00980887,-0.0010202
 1,0.00132046,0.00106607,0.00031760,-0.00106870,-0.00084790,0.00038136,
 0.00072883,0.00102086,0.00046500,-0.00089426,-0.00194419,-0.00032611,0
 .00014667,0.00060501,-0.00039615,0.00042901,0.00107576,0.00082538,-0.0
 0050934,0.00039849,-0.00161128,0.00155797,-0.00325799,0.00016167,-0.00
 086364,0.00117276,0.00128259,-0.00026433,0.00171999,0.00083945,0.01190
 551,0.03350393,0.00337942,-0.18561535,-0.21212478,-0.04145237,0.268955
 79,0.21919760,0.00142863,-0.00180105,0.00142541,-0.00753143,0.00324585
 ,-0.00410434,0.00288127,-0.00037951,0.00049205,0.00069288,-0.00481942,
 0.00923908,0.00386510,-0.00829536,-0.01528993,0.00097000,-0.00120661,0
 .00311671,0.00033691,0.00123107,0.00083912,-0.00087138,-0.00128085,-0.
 00157098,0.00049268,0.00199158,0.00279383,-0.00018775,-0.00053865,-0.0
 0067007,0.00021520,-0.00072608,-0.00143600,-0.00047823,0.00174463,-0.0
 0021724,0.00079905,-0.00341019,0.00120835,-0.00009890,0.00136761,-0.00
 084729,-0.00053998,0.00084829,-0.00071174,-0.06419758,0.00352620,0.093
 97037,-0.32284206,0.12530901,0.25152564,0.03681633,0.04861226,0.030055
 26,0.34964621,-0.00005608,0.00051902,-0.00021259,0.00061078,-0.0011176
 1,-0.00035211,-0.00030938,0.00071283,0.00038246,0.00026677,0.00118812,
 0.00052639,-0.00369640,-0.00324167,-0.00569755,-0.00089815,-0.00090017
 ,0.00314859,0.00024018,-0.00055138,-0.00076708,-0.00007646,0.00054652,
 0.00055554,0.00087283,-0.00046984,-0.00123529,-0.00046537,-0.00000504,
 0.00044699,-0.00046570,0.00032495,0.00070108,0.00131077,0.00145000,-0.
 00050991,-0.00298870,-0.00106283,-0.00037805,0.00061984,0.00070182,-0.
 00030445,0.00116324,0.00042562,0.00059099,-0.02368189,0.03409887,0.029
 83600,0.14612082,-0.26902401,-0.21153530,0.04879574,-0.07575936,-0.103
 54528,-0.16594546,0.31173763,-0.00076295,0.00205851,-0.00151561,0.0041
 7625,-0.00387802,0.00372984,-0.00144303,0.00102559,-0.00072288,-0.0007
 4021,0.00399124,-0.00473575,0.00236022,0.00111537,0.01362487,-0.001354
 21,0.00044833,-0.00365592,-0.00035919,-0.00161601,-0.00159973,0.000922
 86,0.00170219,0.00233986,0.00059123,-0.00215967,-0.00415994,-0.0004112
 4,0.00042804,0.00116131,-0.00072862,0.00088745,0.00221738,0.00113132,-
 0.00098716,-0.00002873,-0.00265624,0.00307887,-0.00175967,0.00045233,-
 0.00110141,0.00086646,0.00118942,-0.00062469,0.00133904,0.07071067,0.0
 0265559,-0.04546260,0.26480584,-0.19090990,-0.46777133,0.03002240,-0.1
 0224209,-0.03455813,-0.36891895,0.28630031,0.53857056,-0.00008028,-0.0
 0046116,0.00004960,0.00021206,-0.00034345,0.00082074,-0.00323461,0.004
 14210,-0.00263969,0.00367158,-0.00016696,0.00292998,-0.16359311,-0.131
 36407,-0.08935041,-0.01815980,-0.02501018,-0.01406834,-0.00398586,0.00
 434216,0.00056086,0.00024119,-0.00000261,-0.00010238,-0.00024839,0.000
 28901,0.00071719,0.00016398,-0.00014659,-0.00032558,0.00012607,-0.0001
 6926,-0.00042022,0.00253127,0.00086011,0.00100995,-0.00130211,0.001111
 25,-0.00492357,-0.00002575,-0.00069971,0.00156792,0.00115316,-0.000273
 13,0.00241069,0.00868185,0.01856182,0.02051793,0.00417748,0.00367052,-
 0.00007451,-0.00458158,-0.00369877,0.00349780,-0.00035134,-0.00073489,
 -0.00012383,0.17424907,0.00117090,0.00165691,-0.00043753,-0.00695161,-
 0.00267406,-0.00191899,0.00290769,0.00258086,0.00008703,-0.01744980,-0
 .03100064,-0.00084156,-0.11551891,-0.22254025,-0.10411774,0.00760462,0
 .01628861,0.00574987,0.00319903,-0.00301087,0.00006414,0.00001772,0.00
 026732,0.00020130,-0.00002492,-0.00052061,-0.00080366,-0.00002972,0.00
 023304,0.00030917,-0.00007340,0.00023372,0.00048919,-0.00168784,-0.001
 06286,-0.00079756,0.00188993,0.00112667,0.00418878,-0.00018531,0.00006
 598,-0.00106190,0.00022763,-0.00260826,-0.00203600,-0.00051449,-0.0047
 3761,-0.01282340,-0.00192993,-0.00239725,-0.00091225,-0.00442665,-0.00
 115371,0.00628280,0.00044748,0.00001183,-0.00020283,0.13151386,0.24797
 247,-0.00053995,0.00026822,-0.00080326,0.00461401,-0.00159607,0.003108
 92,-0.00345721,0.00149943,-0.00160688,0.01524509,0.03260660,0.00831916
 ,-0.08181124,-0.10788913,-0.13324451,-0.00339409,-0.00386750,0.0006085
 2,-0.00054681,0.00068525,0.00046304,0.00013475,0.00011255,0.00014360,0
 .00009878,0.00010417,-0.00003099,-0.00009130,-0.00007870,0.00004780,-0
 .00004934,0.00001637,0.00006308,0.00068474,-0.00065317,0.00010953,-0.0
 0090865,0.00099848,-0.00057480,-0.00000154,-0.00005563,0.00002228,0.00
 081813,-0.00092962,0.00023587,-0.00736717,-0.02806538,-0.02841134,-0.0
 0389363,-0.00924297,-0.00057832,0.00242911,0.00548403,0.00061096,-0.00
 018011,0.00212830,0.00117456,0.07822654,0.10824161,0.14982702,-0.00004
 006,0.00013832,0.00003622,-0.00028664,-0.00003626,-0.00068155,0.000257
 35,0.00005520,-0.00002721,0.00091547,-0.00083504,-0.00029357,-0.010080
 03,0.01239195,0.03191033,-0.10858260,0.03827477,0.09485299,0.01120849,
 -0.00555016,-0.02060623,-0.00471754,-0.00556736,-0.00312558,0.00265952
 ,0.00097086,-0.00068965,-0.00072534,-0.00022334,0.00035764,-0.00047451
 ,-0.00085791,-0.00108903,0.00224053,-0.00350996,-0.00230365,0.00162826
 ,0.00026403,0.00431809,-0.00023568,0.00059853,-0.00140446,-0.00053555,
 -0.00044117,-0.00184998,-0.00993491,0.00072434,0.00201976,0.00203201,0
 .00427891,-0.00116730,-0.00031124,-0.00129770,-0.00027349,-0.00102976,
 -0.00066110,0.00115006,0.00101138,-0.00077765,0.00021915,0.11326375,-0
 .00011618,-0.00004619,-0.00002864,0.00059455,0.00015020,0.00031971,-0.
 00038906,-0.00019180,-0.00002651,-0.00011768,0.00004346,-0.00009976,0.
 00199872,-0.00147436,-0.01032220,0.04222335,-0.09605620,-0.09575961,0.
 01195250,-0.00535247,-0.02054540,-0.00535747,-0.00418714,-0.00238361,0
 .00219385,0.00138117,-0.00072985,-0.00077306,-0.00029723,0.00038685,-0
 .00038198,-0.00079385,-0.00082415,-0.01408269,-0.00019855,0.03956283,0
 .00073743,0.00553578,0.00422341,0.00015271,-0.00014739,-0.00117601,-0.
 00225635,-0.00673219,-0.00217933,0.00281000,0.00050497,-0.00038214,-0.
 00047050,-0.00174613,0.00039306,-0.00001555,0.00060579,0.00010307,0.00
 029072,0.00025943,-0.00030538,-0.00027732,0.00039925,0.00051151,-0.039
 15323,0.10698077,-0.00005312,0.00012864,-0.00010713,0.00071414,-0.0005
 4387,0.00077529,-0.00026291,-0.00002325,-0.00012916,-0.00062925,0.0005
 2531,0.00032232,-0.00049330,0.00073648,0.00610194,0.09758250,-0.082965
 41,-0.28925340,0.00456184,-0.00493498,-0.01070911,-0.00190162,-0.00132
 067,0.00094626,0.00046090,-0.00004740,-0.00025034,-0.00013239,0.000027
 24,0.00016776,-0.00008031,-0.00002370,-0.00002404,0.00789800,0.0067603
 3,-0.02834707,-0.00138815,-0.00495205,-0.00589904,0.00023130,0.0002713
 7,0.00134834,-0.00127518,-0.00354502,0.00475506,-0.00333320,0.00066514
 ,0.00153694,0.00058206,0.00158922,-0.00037484,-0.00005885,-0.00061508,
 -0.00000007,-0.00034219,-0.00026457,0.00037530,0.00019116,-0.00007742,
 0.00057955,-0.10188834,0.08834799,0.31716671,0.00023396,-0.00015275,0.
 00022935,-0.00149778,0.00064066,-0.00099396,0.00081816,0.00010989,0.00
 015525,-0.00119379,0.00009352,-0.00045057,0.00037467,-0.00030759,0.001
 82170,0.00033271,-0.01771491,0.01620329,-0.06661061,-0.00934378,0.0069
 9060,-0.00102051,-0.01042763,0.01529720,0.00080579,-0.00044249,-0.0016
 3668,-0.00030629,0.00010897,-0.00029755,-0.00025352,0.00034357,0.00026
 447,-0.00201695,-0.00524527,-0.00286438,-0.00026664,0.00048174,0.00204
 802,0.00001771,-0.00111959,0.00001409,-0.00009214,-0.00005193,-0.00056
 336,0.00004346,0.00020279,-0.00048453,-0.00031876,-0.00026668,0.000271
 05,0.00006941,0.00018724,-0.00009623,0.00012836,0.00002449,-0.00012128
 ,0.00019670,-0.00012874,-0.00012949,0.00074185,0.00071416,-0.00034602,
 0.06413227,0.00004754,-0.00029489,0.00015804,-0.00066413,0.00116289,-0
 .00077704,0.00065934,-0.00001793,0.00018019,0.00154531,0.00001002,0.00
 079933,-0.00020788,-0.00089462,0.00055959,0.00206262,-0.01446418,0.014
 79332,-0.01494437,-0.26108553,0.15194914,0.00123310,0.01622125,-0.0172
 0943,0.00024103,0.00313515,0.00166620,-0.00096833,-0.00100464,-0.00258
 081,0.00072751,-0.00114363,-0.00080241,-0.00323857,-0.00513406,-0.0026
 4988,-0.00032064,0.00210079,0.00216881,0.00003230,-0.00118389,0.000025
 53,-0.00011500,-0.00031446,-0.00087709,0.00008322,0.00015463,-0.000208
 60,-0.00012805,-0.00046490,-0.00004677,-0.00001170,0.00030498,0.000018
 16,0.00001698,0.00010391,0.00005802,0.00000789,-0.00005181,-0.00002335
 ,0.00037899,0.00014954,-0.00022336,0.01571099,0.27185183,0.00005006,0.
 00019551,-0.00015668,-0.00009805,-0.00055499,0.00027509,-0.00012272,0.
 00009466,-0.00005223,-0.00215350,0.00022634,-0.00108952,0.00064358,0.0
 0067855,0.00015676,0.00204524,-0.00799788,0.01117555,0.00746364,0.1427
 3507,-0.17045282,0.00744562,0.01675508,-0.04015166,0.00763338,0.008146
 50,0.00033958,-0.00334761,-0.00219015,0.00178993,-0.00110437,-0.001791
 50,-0.00007442,-0.00331779,-0.00568085,-0.00080260,-0.00030064,0.00145
 204,0.00203606,0.00008182,-0.00130279,0.00007836,-0.00009831,-0.000238
 06,-0.00066081,-0.00000422,0.00007971,0.00014513,0.00009885,-0.0003335
 6,-0.00030248,-0.00006579,0.00021234,0.00007353,-0.00007901,0.00010394
 ,0.00018244,0.00011653,-0.00007004,0.00001004,0.00088091,0.00019648,0.
 00086475,-0.01519056,-0.15467750,0.19602980,0.00000200,0.00020069,-0.0
 0015924,0.00000725,-0.00031704,0.00028776,-0.00000206,0.00021850,-0.00
 012107,0.00030595,-0.00004516,0.00007374,-0.00036949,-0.00425441,-0.00
 216564,-0.02240830,0.01018240,-0.00453443,-0.30503860,0.11841489,-0.03
 344318,-0.00807555,0.00656868,0.00916687,-0.00301704,-0.00199022,0.000
 40085,0.00196796,-0.00171230,-0.00218545,0.00079644,0.00041903,-0.0006
 3574,0.00235458,0.00202020,0.00061653,-0.00018392,-0.00136680,-0.00080
 934,0.00000546,0.00031143,0.00004355,0.00017662,0.00021278,0.00058870,
 0.00000485,-0.00015728,0.00048325,0.00040035,0.00044350,-0.00033063,-0
 .00004593,-0.00025171,0.00010574,-0.00014421,-0.00004587,0.00010717,-0
 .00085297,0.00072012,-0.00009978,0.00099527,-0.00027691,-0.00003704,0.
 00568193,-0.00214815,-0.00057704,0.32743943,0.00005423,0.00030017,-0.0
 0018399,-0.00033039,-0.00035386,0.00015695,0.00022624,0.00037224,-0.00
 012652,0.00070205,0.00014103,0.00037961,-0.00221918,-0.00625667,-0.001
 98844,-0.02847681,0.01135377,-0.00372254,0.11802258,-0.12087343,0.0204
 1635,0.00918952,-0.00611826,-0.00938847,0.00709429,0.00332305,0.000055
 14,-0.00286228,-0.00107854,0.00079507,-0.00122649,-0.00059343,-0.00003
 565,0.00068604,0.00250116,0.00011121,-0.00016216,-0.00019709,-0.000883
 93,0.00002111,0.00016711,0.00011686,0.00015034,0.00000298,0.00039899,-
 0.00015911,0.00006090,0.00058539,0.00044057,0.00017335,-0.00052852,-0.
 00004339,-0.00000402,0.00018478,-0.00022851,0.00005136,0.00027764,-0.0
 0115063,0.00092128,-0.00025498,0.00083499,0.00121313,0.00048505,0.0265
 8335,-0.00914045,0.00396109,-0.12714638,0.12403424,-0.00013291,0.00033
 419,-0.00027989,0.00077597,-0.00081795,0.00072762,-0.00048176,0.000184
 69,-0.00019632,-0.00058389,0.00000156,-0.00018135,-0.00025879,-0.00287
 352,-0.00119539,-0.01272160,0.00727035,-0.00130226,-0.04383496,0.02244
 065,-0.06687099,0.04101644,-0.02637539,-0.01287679,0.00684267,0.003775
 80,0.00415097,-0.00266884,-0.00208898,-0.00064941,-0.00120230,-0.00026
 580,-0.00171695,0.00139533,0.00007980,0.00016681,0.00005142,0.00021833
 ,0.00003144,-0.00005145,-0.00014623,0.00004700,0.00008337,-0.00008886,
 0.00000517,-0.00052708,0.00003832,0.00080911,0.00054866,0.00010101,-0.
 00066857,-0.00012285,0.00003694,0.00021294,-0.00029797,0.00008159,0.00
 038867,-0.00058836,0.00048697,-0.00007382,-0.00034510,0.00071768,0.000
 15398,-0.02012041,0.00769993,0.00058624,0.03322443,-0.01081108,0.07873
 178||0.00000338,-0.00000457,0.00000095,-0.00005723,0.00000209,-0.00001
 359,0.00002683,0.00000995,-0.00000226,0.00001181,-0.00002687,0.0000377
 2,0.00002272,0.00002956,-0.00006163,0.00000243,-0.00001578,0.00001940,
 -0.00000982,0.00000926,-0.00001014,0.00000881,0.00001016,-0.00000359,0
 .00003604,-0.00001222,0.00001296,-0.00001329,0.00000246,-0.00000606,-0
 .00001999,0.00000442,0.00000028,-0.00001311,0.00001061,-0.00000384,-0.
 00001776,-0.00001330,-0.00001196,0.00000877,-0.00000727,0.00000086,0.0
 0001049,0.00000811,0.00001408,-0.00001896,-0.00001786,0.00003207,0.000
 02174,0.00001603,-0.00005275,-0.00000096,0.00000475,0.00001728,-0.0000
 1466,-0.00000098,0.00002738,-0.00000022,-0.00000027,0.00000248,-0.0000
 0002,-0.00000486,-0.00000509,-0.00000004,-0.00000439,0.00000414,0.0000
 1305,0.00000099,0.00000130|||@
 The archive entry for this job was punched.


 ALL MEN WHO EXPLORE
 DEPLORE
 THAT FRUSTRATING HURDLE
 THE GIRDLE.

         -- COLIN FLETCHER
 Job cpu time:       0 days  0 hours  1 minutes 27.0 seconds.
 Elapsed time:       0 days  0 hours  1 minutes 25.5 seconds.
 File lengths (MBytes):  RWF=    251 Int=      0 D2E=      0 Chk=      8 Scr=      1
 Normal termination of Gaussian 16 at Tue Jun 11 17:35:44 2024.
