 Entering Link 1 = C:\G16W\l1.exe PID=     25676.
  
 Copyright (c) 1988-2019, Gaussian, Inc.  All Rights Reserved.
  
 This is part of the Gaussian(R) 16 program.  It is based on
 the Gaussian(R) 09 system (copyright 2009, Gaussian, Inc.),
 the Gaussian(R) 03 system (copyright 2003, Gaussian, Inc.),
 the Gaussian(R) 98 system (copyright 1998, Gaussian, Inc.),
 the Gaussian(R) 94 system (copyright 1995, Gaussian, Inc.),
 the Gaussian 92(TM) system (copyright 1992, Gaussian, Inc.),
 the Gaussian 90(TM) system (copyright 1990, Gaussian, Inc.),
 the Gaussian 88(TM) system (copyright 1988, Gaussian, Inc.),
 the Gaussian 86(TM) system (copyright 1986, Carnegie Mellon
 University), and the Gaussian 82(TM) system (copyright 1983,
 Carnegie Mellon University). Gaussian is a federally registered
 trademark of Gaussian, Inc.
  
 This software contains proprietary and confidential information,
 including trade secrets, belonging to Gaussian, Inc.
  
 This software is provided under written license and may be
 used, copied, transmitted, or stored only in accord with that
 written license.
  
 The following legend is applicable only to US Government
 contracts under FAR:
  
                    RESTRICTED RIGHTS LEGEND
  
 Use, reproduction and disclosure by the US Government is
 subject to restrictions as set forth in subparagraphs (a)
 and (c) of the Commercial Computer Software - Restricted
 Rights clause in FAR 52.227-19.
  
 Gaussian, Inc.
 340 Quinnipiac St., Bldg. 40, Wallingford CT 06492
  
  
 ---------------------------------------------------------------
 Warning -- This program may not be used in any manner that
 competes with the business of Gaussian, Inc. or will provide
 assistance to any competitor of Gaussian, Inc.  The licensee
 of this program is prohibited from giving any competitor of
 Gaussian, Inc. access to this program.  By using this program,
 the user acknowledges that Gaussian, Inc. is engaged in the
 business of creating and licensing software in the field of
 computational chemistry and represents and warrants to the
 licensee that it is not a competitor of Gaussian, Inc. and that
 it will not use this program in any manner prohibited above.
 ---------------------------------------------------------------
  

 Cite this work as:
 Gaussian 16, Revision C.01,
 M. J. Frisch, G. W. Trucks, H. B. Schlegel, G. E. Scuseria, 
 M. A. Robb, J. R. Cheeseman, G. Scalmani, V. Barone, 
 G. A. Petersson, H. Nakatsuji, X. Li, M. Caricato, A. V. Marenich, 
 J. Bloino, B. G. Janesko, R. Gomperts, B. Mennucci, H. P. Hratchian, 
 J. V. Ortiz, A. F. Izmaylov, J. L. Sonnenberg, D. Williams-Young, 
 F. Ding, F. Lipparini, F. Egidi, J. Goings, B. Peng, A. Petrone, 
 T. Henderson, D. Ranasinghe, V. G. Zakrzewski, J. Gao, N. Rega, 
 G. Zheng, W. Liang, M. Hada, M. Ehara, K. Toyota, R. Fukuda, 
 J. Hasegawa, M. Ishida, T. Nakajima, Y. Honda, O. Kitao, H. Nakai, 
 T. Vreven, K. Throssell, J. A. Montgomery, Jr., J. E. Peralta, 
 F. Ogliaro, M. J. Bearpark, J. J. Heyd, E. N. Brothers, K. N. Kudin, 
 V. N. Staroverov, T. A. Keith, R. Kobayashi, J. Normand, 
 K. Raghavachari, A. P. Rendell, J. C. Burant, S. S. Iyengar, 
 J. Tomasi, M. Cossi, J. M. Millam, M. Klene, C. Adamo, R. Cammi, 
 J. W. Ochterski, R. L. Martin, K. Morokuma, O. Farkas, 
 J. B. Foresman, and D. J. Fox, Gaussian, Inc., Wallingford CT, 2019.
 
 ******************************************
 Gaussian 16:  EM64W-G16RevC.01 30-May-2019
                11-Jun-2024 
 ******************************************
 %nprocshared=24
 Will use up to   24 processors via shared memory.
 %mem=120GB
 ----------------------
 # HF/6-31G(d) Opt Freq
 ----------------------
 1/18=20,19=15,38=1/1,3;
 2/9=110,12=2,17=6,18=5,40=1/2;
 3/5=1,6=6,7=1,11=9,25=1,30=1,71=1/1,2,3;
 4//1;
 5/5=2,38=5/2;
 6/7=2,8=2,9=2,10=2,28=1/1;
 7//1,2,3,16;
 1/18=20,19=15/3(2);
 2/9=110/2;
 99//99;
 2/9=110/2;
 3/5=1,6=6,7=1,11=9,25=1,30=1,71=1/1,2,3;
 4/5=5,16=3,69=1/1;
 5/5=2,38=5/2;
 7//1,2,3,16;
 1/18=20,19=15/3(-5);
 2/9=110/2;
 6/7=2,8=2,9=2,10=2,19=2,28=1/1;
 99/9=1/99;
 ----------------------------------------------------------------------
 O=[N+1]([O-1])OCCC(O[N+1]([O-1])=O)(O[N+1]([O-1])=O)O[N+1]([O-1])=O ge
 ometry optimization
 ----------------------------------------------------------------------
 Symbolic Z-matrix:
 Charge =  0 Multiplicity = 1
 O                     3.67584   1.32984   0.58316 
 N                     3.6786    0.16991   0.99673 
 O                     4.56846  -0.47231   1.54933 
 O                     2.49647  -0.58772   0.80017 
 C                     1.45326   0.16965   0.18106 
 C                     0.26046  -0.77441  -0.00927 
 C                    -1.05526  -0.20822  -0.65064 
 O                    -0.64848   0.45254  -1.88159 
 N                    -0.45521   1.8396   -1.80129 
 O                    -0.29685   2.35717  -2.90174 
 O                    -0.4119    2.336    -0.68006 
 O                    -2.07569   0.54161   0.00139 
 N                    -1.92377   0.89157   1.35189 
 O                    -0.87761   0.59192   1.91317 
 O                    -2.9054    1.48661   1.78823 
 O                    -1.7046   -1.38705  -1.22665 
 N                    -2.33535  -2.24475  -0.31101 
 O                    -2.84708  -3.21817  -0.85506 
 O                    -2.29237  -1.93623   0.87578 
 H                     1.20092   1.02198   0.81617 
 H                     1.79717   0.51892  -0.79924 
 H                     0.06816  -1.30431   0.93045 
 H                     0.63024  -1.57413  -0.67096 
 

 GradGradGradGradGradGradGradGradGradGradGradGradGradGradGradGradGradGrad
 Berny optimization.
 Initialization pass.
                           ----------------------------
                           !    Initial Parameters    !
                           ! (Angstroms and Degrees)  !
 --------------------------                            --------------------------
 ! Name  Definition              Value          Derivative Info.                !
 --------------------------------------------------------------------------------
 ! R1    R(1,2)                  1.2315         estimate D2E/DX2                !
 ! R2    R(2,3)                  1.2287         estimate D2E/DX2                !
 ! R3    R(2,4)                  1.4178         estimate D2E/DX2                !
 ! R4    R(4,5)                  1.4301         estimate D2E/DX2                !
 ! R5    R(5,6)                  1.5331         estimate D2E/DX2                !
 ! R6    R(5,20)                 1.0925         estimate D2E/DX2                !
 ! R7    R(5,21)                 1.096          estimate D2E/DX2                !
 ! R8    R(6,7)                  1.5694         estimate D2E/DX2                !
 ! R9    R(6,22)                 1.0958         estimate D2E/DX2                !
 ! R10   R(6,23)                 1.1019         estimate D2E/DX2                !
 ! R11   R(7,8)                  1.4551         estimate D2E/DX2                !
 ! R12   R(7,12)                 1.4243         estimate D2E/DX2                !
 ! R13   R(7,16)                 1.4639         estimate D2E/DX2                !
 ! R14   R(8,9)                  1.4028         estimate D2E/DX2                !
 ! R15   R(9,10)                 1.2264         estimate D2E/DX2                !
 ! R16   R(9,11)                 1.227          estimate D2E/DX2                !
 ! R17   R(12,13)                1.4033         estimate D2E/DX2                !
 ! R18   R(13,14)                1.2245         estimate D2E/DX2                !
 ! R19   R(13,15)                1.228          estimate D2E/DX2                !
 ! R20   R(16,17)                1.4042         estimate D2E/DX2                !
 ! R21   R(17,18)                1.2269         estimate D2E/DX2                !
 ! R22   R(17,19)                1.227          estimate D2E/DX2                !
 ! A1    A(1,2,3)              130.1655         estimate D2E/DX2                !
 ! A2    A(1,2,4)              117.0596         estimate D2E/DX2                !
 ! A3    A(3,2,4)              112.7618         estimate D2E/DX2                !
 ! A4    A(2,4,5)              112.6583         estimate D2E/DX2                !
 ! A5    A(4,5,6)              107.1683         estimate D2E/DX2                !
 ! A6    A(4,5,20)             109.2684         estimate D2E/DX2                !
 ! A7    A(4,5,21)             109.0913         estimate D2E/DX2                !
 ! A8    A(6,5,20)             111.8946         estimate D2E/DX2                !
 ! A9    A(6,5,21)             109.2288         estimate D2E/DX2                !
 ! A10   A(20,5,21)            110.1104         estimate D2E/DX2                !
 ! A11   A(5,6,7)              118.7413         estimate D2E/DX2                !
 ! A12   A(5,6,22)             109.1385         estimate D2E/DX2                !
 ! A13   A(5,6,23)             105.0925         estimate D2E/DX2                !
 ! A14   A(7,6,22)             112.1971         estimate D2E/DX2                !
 ! A15   A(7,6,23)             107.324          estimate D2E/DX2                !
 ! A16   A(22,6,23)            102.8789         estimate D2E/DX2                !
 ! A17   A(6,7,8)              105.9723         estimate D2E/DX2                !
 ! A18   A(6,7,12)             127.1185         estimate D2E/DX2                !
 ! A19   A(6,7,16)             104.0135         estimate D2E/DX2                !
 ! A20   A(8,7,12)             110.3952         estimate D2E/DX2                !
 ! A21   A(8,7,16)              99.0218         estimate D2E/DX2                !
 ! A22   A(12,7,16)            106.6349         estimate D2E/DX2                !
 ! A23   A(7,8,9)              116.047          estimate D2E/DX2                !
 ! A24   A(8,9,10)             112.5655         estimate D2E/DX2                !
 ! A25   A(8,9,11)             117.2076         estimate D2E/DX2                !
 ! A26   A(10,9,11)            130.1436         estimate D2E/DX2                !
 ! A27   A(7,12,13)            119.6218         estimate D2E/DX2                !
 ! A28   A(12,13,14)           118.203          estimate D2E/DX2                !
 ! A29   A(12,13,15)           112.1006         estimate D2E/DX2                !
 ! A30   A(14,13,15)           129.6922         estimate D2E/DX2                !
 ! A31   A(7,16,17)            115.7546         estimate D2E/DX2                !
 ! A32   A(16,17,18)           112.5067         estimate D2E/DX2                !
 ! A33   A(16,17,19)           117.4757         estimate D2E/DX2                !
 ! A34   A(18,17,19)           130.0151         estimate D2E/DX2                !
 ! D1    D(1,2,3,4)           -178.6179         estimate D2E/DX2                !
 ! D2    D(1,2,4,5)             -2.3565         estimate D2E/DX2                !
 ! D3    D(3,2,4,5)            178.8294         estimate D2E/DX2                !
 ! D4    D(2,4,5,6)            178.3041         estimate D2E/DX2                !
 ! D5    D(2,4,5,20)           -60.2662         estimate D2E/DX2                !
 ! D6    D(2,4,5,21)            60.1599         estimate D2E/DX2                !
 ! D7    D(4,5,6,7)            178.9407         estimate D2E/DX2                !
 ! D8    D(4,5,6,22)            48.6693         estimate D2E/DX2                !
 ! D9    D(4,5,6,23)           -61.0826         estimate D2E/DX2                !
 ! D10   D(20,5,6,7)            59.1789         estimate D2E/DX2                !
 ! D11   D(20,5,6,22)          -71.0924         estimate D2E/DX2                !
 ! D12   D(20,5,6,23)          179.1556         estimate D2E/DX2                !
 ! D13   D(21,5,6,7)           -63.0045         estimate D2E/DX2                !
 ! D14   D(21,5,6,22)          166.7241         estimate D2E/DX2                !
 ! D15   D(21,5,6,23)           56.9722         estimate D2E/DX2                !
 ! D16   D(5,6,7,8)             51.5263         estimate D2E/DX2                !
 ! D17   D(5,6,7,12)           -80.6339         estimate D2E/DX2                !
 ! D18   D(5,6,7,16)           155.3859         estimate D2E/DX2                !
 ! D19   D(22,6,7,8)          -179.5987         estimate D2E/DX2                !
 ! D20   D(22,6,7,12)           48.2411         estimate D2E/DX2                !
 ! D21   D(22,6,7,16)          -75.7391         estimate D2E/DX2                !
 ! D22   D(23,6,7,8)           -67.2992         estimate D2E/DX2                !
 ! D23   D(23,6,7,12)          160.5406         estimate D2E/DX2                !
 ! D24   D(23,6,7,16)           36.5604         estimate D2E/DX2                !
 ! D25   D(6,7,8,9)            -96.4482         estimate D2E/DX2                !
 ! D26   D(12,7,8,9)            44.4564         estimate D2E/DX2                !
 ! D27   D(16,7,8,9)           156.0658         estimate D2E/DX2                !
 ! D28   D(6,7,12,13)            2.8026         estimate D2E/DX2                !
 ! D29   D(8,7,12,13)         -127.7053         estimate D2E/DX2                !
 ! D30   D(16,7,12,13)         125.6946         estimate D2E/DX2                !
 ! D31   D(6,7,16,17)           75.7242         estimate D2E/DX2                !
 ! D32   D(8,7,16,17)         -175.2016         estimate D2E/DX2                !
 ! D33   D(12,7,16,17)         -60.6376         estimate D2E/DX2                !
 ! D34   D(7,8,9,10)          -170.5314         estimate D2E/DX2                !
 ! D35   D(7,8,9,11)            12.4496         estimate D2E/DX2                !
 ! D36   D(8,9,10,11)         -176.5313         estimate D2E/DX2                !
 ! D37   D(7,12,13,14)           3.4752         estimate D2E/DX2                !
 ! D38   D(7,12,13,15)        -177.1985         estimate D2E/DX2                !
 ! D39   D(12,13,14,15)        179.1888         estimate D2E/DX2                !
 ! D40   D(7,16,17,18)        -179.2978         estimate D2E/DX2                !
 ! D41   D(7,16,17,19)           0.1832         estimate D2E/DX2                !
 ! D42   D(16,17,18,19)        179.3988         estimate D2E/DX2                !
 --------------------------------------------------------------------------------
 Trust Radius=3.00D-01 FncErr=1.00D-07 GrdErr=1.00D-07 EigMax=2.50D+02 EigMin=1.00D-04
 Number of steps in this run=    108 maximum allowed number of steps=    138.
 GradGradGradGradGradGradGradGradGradGradGradGradGradGradGradGradGradGrad

                          Input orientation:                          
 ---------------------------------------------------------------------
 Center     Atomic      Atomic             Coordinates (Angstroms)
 Number     Number       Type             X           Y           Z
 ---------------------------------------------------------------------
      1          8           0        3.675839    1.329836    0.583162
      2          7           0        3.678598    0.169910    0.996727
      3          8           0        4.568457   -0.472314    1.549326
      4          8           0        2.496467   -0.587724    0.800166
      5          6           0        1.453257    0.169652    0.181056
      6          6           0        0.260455   -0.774413   -0.009268
      7          6           0       -1.055262   -0.208220   -0.650642
      8          8           0       -0.648475    0.452539   -1.881589
      9          7           0       -0.455211    1.839602   -1.801293
     10          8           0       -0.296854    2.357167   -2.901741
     11          8           0       -0.411901    2.335998   -0.680060
     12          8           0       -2.075689    0.541615    0.001393
     13          7           0       -1.923768    0.891574    1.351886
     14          8           0       -0.877611    0.591916    1.913172
     15          8           0       -2.905396    1.486608    1.788226
     16          8           0       -1.704600   -1.387048   -1.226651
     17          7           0       -2.335350   -2.244753   -0.311007
     18          8           0       -2.847083   -3.218172   -0.855057
     19          8           0       -2.292370   -1.936227    0.875781
     20          1           0        1.200921    1.021981    0.816168
     21          1           0        1.797173    0.518918   -0.799245
     22          1           0        0.068162   -1.304314    0.930445
     23          1           0        0.630241   -1.574130   -0.670955
 ---------------------------------------------------------------------
                    Distance matrix (angstroms):
                    1          2          3          4          5
     1  O    0.000000
     2  N    1.231450   0.000000
     3  O    2.231139   1.228685   0.000000
     4  O    2.261646   1.417773   2.206288   0.000000
     5  C    2.539209   2.370118   3.462478   1.430105   0.000000
     6  C    4.055081   3.686119   4.591227   2.385327   1.533056
     7  C    5.125544   5.026554   6.044487   3.855340   2.669678
     8  O    5.054141   5.204627   6.312124   4.261997   2.958346
     9  N    4.796984   5.263569   6.465975   4.622975   3.218802
    10  O    5.383517   5.982171   7.175599   5.493555   4.165544
    11  O    4.395191   4.922980   6.136835   4.381531   2.985530
    12  O    5.834365   5.851553   6.897015   4.776824   3.553040
    13  N    5.669092   5.659809   6.636878   4.693740   3.646411
    14  O    4.800766   4.666583   5.560991   3.743625   2.934532
    15  O    6.692489   6.760854   7.730002   5.870199   4.828585
    16  O    6.293330   6.028794   6.920552   4.732428   3.791704
    17  N    7.050646   6.611228   7.366474   5.227514   4.519405
    18  O    8.080925   7.582395   8.265049   6.181629   5.571697
    19  O    6.809721   6.332685   7.047528   4.975654   4.352826
    20  H    2.504852   2.626311   3.756426   2.066360   1.092476
    21  H    2.469417   2.624325   3.765414   2.066829   1.096017
    22  H    4.480478   3.900382   4.618213   2.535180   2.157001
    23  H    4.391070   3.887843   4.653300   2.572935   2.108093
                    6          7          8          9         10
     6  C    0.000000
     7  C    1.569410   0.000000
     8  O    2.416019   1.455097   0.000000
     9  N    3.249092   2.424382   1.402762   0.000000
    10  O    4.299277   3.496261   2.189054   1.226352   0.000000
    11  O    3.252180   2.624466   2.246566   1.226967   2.224759
    12  O    2.681345   1.424314   2.364423   2.749617   3.858584
    13  N    3.065792   2.444170   3.503496   3.605267   4.784157
    14  O    2.618745   2.691639   3.804227   3.941115   5.161083
    15  O    4.285536   3.499073   4.430636   4.360351   5.436742
    16  O    2.391398   1.463920   2.220005   3.507486   4.336684
    17  N    2.998525   2.429289   3.547909   4.736859   5.660834
    18  O    4.042785   3.508877   4.400200   5.674283   6.463512
    19  O    2.941095   2.616565   4.001460   4.979835   6.056814
    20  H    2.189258   2.958934   3.320004   3.203494   4.224796
    21  H    2.158302   2.947405   2.675270   2.796701   3.490645
    22  H    1.095826   2.227857   3.392291   4.197680   5.312753
    23  H    1.101871   2.169573   2.684797   3.756253   4.614218
                   11         12         13         14         15
    11  O    0.000000
    12  O    2.540153   0.000000
    13  N    2.915631   1.403347   0.000000
    14  O    3.159676   2.256728   1.224451   0.000000
    15  O    3.609905   2.184994   1.228028   2.219910   0.000000
    16  O    3.978807   2.316363   3.448044   3.802459   4.334662
    17  N    4.981881   2.815824   3.573676   3.888273   4.319119
    18  O    6.067086   3.932500   4.755326   5.104771   5.396787
    19  O    4.920235   2.636514   2.891194   3.077212   3.595019
    20  H    2.562525   3.410393   3.172961   2.389282   4.245305
    21  H    2.862864   3.954819   4.314120   3.810118   5.453951
    22  H    4.009496   2.977699   2.994549   2.335793   4.167383
    23  H    4.046634   3.500069   4.085896   3.693655   5.283599
                   16         17         18         19         20
    16  O    0.000000
    17  N    1.404246   0.000000
    18  O    2.190060   1.226950   0.000000
    19  O    2.251064   1.226988   2.224160   0.000000
    20  H    4.291688   4.944420   6.095755   4.577950   0.000000
    21  H    4.009713   4.995398   5.961382   5.055473   1.793919
    22  H    2.793313   2.864000   3.917847   2.444261   2.589952
    23  H    2.407339   3.061703   3.850785   3.326433   3.045817
                   21         22         23
    21  H    0.000000
    22  H    3.050489   0.000000
    23  H    2.399800   1.718493   0.000000
 Stoichiometry    C3H4N4O12
 Framework group  C1[X(C3H4N4O12)]
 Deg. of freedom    63
 Full point group                 C1      NOp   1
 Largest Abelian subgroup         C1      NOp   1
 Largest concise Abelian subgroup C1      NOp   1
                         Standard orientation:                         
 ---------------------------------------------------------------------
 Center     Atomic      Atomic             Coordinates (Angstroms)
 Number     Number       Type             X           Y           Z
 ---------------------------------------------------------------------
      1          8           0        4.075232    0.411275    0.139280
      2          7           0        3.906632   -0.800257   -0.002964
      3          8           0        4.723151   -1.718342   -0.012094
      4          8           0        2.578119   -1.245532   -0.219444
      5          6           0        1.626474   -0.178687   -0.181828
      6          6           0        0.250351   -0.789407   -0.470906
      7          6           0       -1.007200    0.149535   -0.470293
      8          8           0       -0.678760    1.259260   -1.352304
      9          7           0       -0.194062    2.418772   -0.729132
     10          8           0       -0.113610    3.368920   -1.500291
     11          8           0        0.131925    2.327356    0.450200
     12          8           0       -1.731909    0.614837    0.664151
     13          7           0       -1.293964    0.276196    1.953689
     14          8           0       -0.254775   -0.362117    2.062885
     15          8           0       -2.048093    0.701891    2.824394
     16          8           0       -1.969760   -0.546575   -1.325846
     17          7           0       -2.606047   -1.657959   -0.749762
     18          8           0       -3.388391   -2.203544   -1.521565
     19          8           0       -2.308349   -1.944853    0.405473
     20          1           0        1.661342    0.301097    0.799037
     21          1           0        1.870923    0.547538   -0.965471
     22          1           0        0.108501   -1.671788    0.163222
     23          1           0        0.335327   -1.223363   -1.480154
 ---------------------------------------------------------------------
 Rotational constants (GHZ):           0.4641211           0.2544903           0.2258131
 Standard basis: 6-31G(d) (6D, 7F)
 There are   293 symmetry adapted cartesian basis functions of A   symmetry.
 There are   293 symmetry adapted basis functions of A   symmetry.
   293 basis functions,   548 primitive gaussians,   293 cartesian basis functions
    73 alpha electrons       73 beta electrons
       nuclear repulsion energy      1661.7951085680 Hartrees.
 NAtoms=   23 NActive=   23 NUniq=   23 SFac= 1.00D+00 NAtFMM=   60 NAOKFM=F Big=F
 Integral buffers will be    131072 words long.
 Raffenetti 1 integral format.
 Two-electron integral symmetry is turned on.
 One-electron integrals computed using PRISM.
 NBasis=   293 RedAO= T EigKep=  1.58D-03  NBF=   293
 NBsUse=   293 1.00D-06 EigRej= -1.00D+00 NBFU=   293
 ExpMin= 1.61D-01 ExpMax= 5.48D+03 ExpMxC= 8.25D+02 IAcc=3 IRadAn=         5 AccDes= 0.00D+00
 Harris functional with IExCor=  205 and IRadAn=       5 diagonalized for initial guess.
 HarFok:  IExCor=  205 AccDes= 0.00D+00 IRadAn=         5 IDoV= 1 UseB2=F ITyADJ=14
 ICtDFT=  3500011 ScaDFX=  1.000000  1.000000  1.000000  1.000000
 FoFCou: FMM=F IPFlag=           0 FMFlag=      100000 FMFlg1=           0
         NFxFlg=           0 DoJE=T BraDBF=F KetDBF=T FulRan=T
         wScrn=  0.000000 ICntrl=       500 IOpCl=  0 I1Cent=   200000004 NGrid=           0
         NMat0=    1 NMatS0=      1 NMatT0=    0 NMatD0=    1 NMtDS0=    0 NMtDT0=    0
 Petite list used in FoFCou.
 Requested convergence on RMS density matrix=1.00D-08 within 128 cycles.
 Requested convergence on MAX density matrix=1.00D-06.
 Requested convergence on             energy=1.00D-06.
 No special actions if energy rises.
 Integral accuracy reduced to 1.0D-05 until final iterations.
 Initial convergence to 1.0D-05 achieved.  Increase integral accuracy.
 SCF Done:  E(RHF) =  -1231.27826737     A.U. after   17 cycles
            NFock= 17  Conv=0.51D-08     -V/T= 2.0045

 **********************************************************************

            Population analysis using the SCF Density.

 **********************************************************************

 Orbital symmetries:
       Occupied  (A) (A) (A) (A) (A) (A) (A) (A) (A) (A) (A) (A)
                 (A) (A) (A) (A) (A) (A) (A) (A) (A) (A) (A) (A)
                 (A) (A) (A) (A) (A) (A) (A) (A) (A) (A) (A) (A)
                 (A) (A) (A) (A) (A) (A) (A) (A) (A) (A) (A) (A)
                 (A) (A) (A) (A) (A) (A) (A) (A) (A) (A) (A) (A)
                 (A) (A) (A) (A) (A) (A) (A) (A) (A) (A) (A) (A)
                 (A)
       Virtual   (A) (A) (A) (A) (A) (A) (A) (A) (A) (A) (A) (A)
                 (A) (A) (A) (A) (A) (A) (A) (A) (A) (A) (A) (A)
                 (A) (A) (A) (A) (A) (A) (A) (A) (A) (A) (A) (A)
                 (A) (A) (A) (A) (A) (A) (A) (A) (A) (A) (A) (A)
                 (A) (A) (A) (A) (A) (A) (A) (A) (A) (A) (A) (A)
                 (A) (A) (A) (A) (A) (A) (A) (A) (A) (A) (A) (A)
                 (A) (A) (A) (A) (A) (A) (A) (A) (A) (A) (A) (A)
                 (A) (A) (A) (A) (A) (A) (A) (A) (A) (A) (A) (A)
                 (A) (A) (A) (A) (A) (A) (A) (A) (A) (A) (A) (A)
                 (A) (A) (A) (A) (A) (A) (A) (A) (A) (A) (A) (A)
                 (A) (A) (A) (A) (A) (A) (A) (A) (A) (A) (A) (A)
                 (A) (A) (A) (A) (A) (A) (A) (A) (A) (A) (A) (A)
                 (A) (A) (A) (A) (A) (A) (A) (A) (A) (A) (A) (A)
                 (A) (A) (A) (A) (A) (A) (A) (A) (A) (A) (A) (A)
                 (A) (A) (A) (A) (A) (A) (A) (A) (A) (A) (A) (A)
                 (A) (A) (A) (A) (A) (A) (A) (A) (A) (A) (A) (A)
                 (A) (A) (A) (A) (A) (A) (A) (A) (A) (A) (A) (A)
                 (A) (A) (A) (A) (A) (A) (A) (A) (A) (A) (A) (A)
                 (A) (A) (A) (A)
 The electronic state is 1-A.
 Alpha  occ. eigenvalues --  -20.75810 -20.75606 -20.74840 -20.70563 -20.69819
 Alpha  occ. eigenvalues --  -20.69695 -20.69323 -20.69304 -20.69253 -20.69217
 Alpha  occ. eigenvalues --  -20.66264 -20.65950 -15.99597 -15.99337 -15.99093
 Alpha  occ. eigenvalues --  -15.95384 -11.55462 -11.35024 -11.32136  -1.72244
 Alpha  occ. eigenvalues --   -1.71048  -1.70575  -1.66919  -1.55333  -1.49276
 Alpha  occ. eigenvalues --   -1.48718  -1.48574  -1.47836  -1.46960  -1.45488
 Alpha  occ. eigenvalues --   -1.44973  -1.15428  -1.08971  -1.02295  -0.98705
 Alpha  occ. eigenvalues --   -0.98004  -0.90872  -0.88994  -0.87151  -0.85167
 Alpha  occ. eigenvalues --   -0.84400  -0.84132  -0.81928  -0.81751  -0.81660
 Alpha  occ. eigenvalues --   -0.81203  -0.80830  -0.79532  -0.78008  -0.77251
 Alpha  occ. eigenvalues --   -0.73692  -0.72539  -0.69142  -0.68589  -0.66721
 Alpha  occ. eigenvalues --   -0.63313  -0.61649  -0.60608  -0.60062  -0.58893
 Alpha  occ. eigenvalues --   -0.58334  -0.58235  -0.57029  -0.56551  -0.56217
 Alpha  occ. eigenvalues --   -0.55653  -0.54094  -0.53493  -0.53065  -0.52580
 Alpha  occ. eigenvalues --   -0.52170  -0.51681  -0.49180
 Alpha virt. eigenvalues --    0.03289   0.03616   0.04487   0.07220   0.13282
 Alpha virt. eigenvalues --    0.18233   0.19454   0.19928   0.23953   0.24857
 Alpha virt. eigenvalues --    0.26477   0.27241   0.28548   0.29736   0.33438
 Alpha virt. eigenvalues --    0.37126   0.39785   0.40989   0.42697   0.43130
 Alpha virt. eigenvalues --    0.44049   0.45669   0.54254   0.54642   0.57260
 Alpha virt. eigenvalues --    0.57794   0.63925   0.67038   0.67351   0.70001
 Alpha virt. eigenvalues --    0.72857   0.75348   0.76536   0.77469   0.78070
 Alpha virt. eigenvalues --    0.79190   0.79930   0.81238   0.81607   0.83087
 Alpha virt. eigenvalues --    0.85466   0.86007   0.87069   0.88284   0.89691
 Alpha virt. eigenvalues --    0.90356   0.90940   0.94060   0.97187   0.98788
 Alpha virt. eigenvalues --    1.00987   1.02761   1.03612   1.04003   1.04697
 Alpha virt. eigenvalues --    1.05208   1.05555   1.05679   1.06304   1.09264
 Alpha virt. eigenvalues --    1.10058   1.11683   1.12214   1.13945   1.15065
 Alpha virt. eigenvalues --    1.15848   1.16656   1.17677   1.18102   1.19130
 Alpha virt. eigenvalues --    1.20159   1.20531   1.21857   1.22298   1.22861
 Alpha virt. eigenvalues --    1.23631   1.23980   1.25113   1.26131   1.28752
 Alpha virt. eigenvalues --    1.30250   1.31211   1.34053   1.34935   1.36052
 Alpha virt. eigenvalues --    1.36393   1.38085   1.40368   1.42088   1.42647
 Alpha virt. eigenvalues --    1.44957   1.49310   1.51550   1.53000   1.55598
 Alpha virt. eigenvalues --    1.56225   1.57096   1.58141   1.59524   1.60547
 Alpha virt. eigenvalues --    1.62782   1.64343   1.65129   1.67408   1.69907
 Alpha virt. eigenvalues --    1.70288   1.72530   1.73412   1.75746   1.76481
 Alpha virt. eigenvalues --    1.78843   1.87123   1.87722   1.89469   1.92662
 Alpha virt. eigenvalues --    1.94514   1.95324   1.97514   1.98455   1.99891
 Alpha virt. eigenvalues --    2.01191   2.01439   2.02440   2.02646   2.02930
 Alpha virt. eigenvalues --    2.03548   2.04520   2.04961   2.05192   2.06053
 Alpha virt. eigenvalues --    2.06529   2.07157   2.08940   2.09558   2.12518
 Alpha virt. eigenvalues --    2.14260   2.16646   2.18126   2.18336   2.20385
 Alpha virt. eigenvalues --    2.22549   2.25434   2.25938   2.26365   2.28155
 Alpha virt. eigenvalues --    2.28673   2.30723   2.31127   2.31858   2.34002
 Alpha virt. eigenvalues --    2.36572   2.38093   2.38792   2.39489   2.41543
 Alpha virt. eigenvalues --    2.42166   2.43753   2.45515   2.46647   2.48942
 Alpha virt. eigenvalues --    2.51072   2.55643   2.59425   2.60127   2.63614
 Alpha virt. eigenvalues --    2.66087   2.73017   2.74961   2.78885   2.80901
 Alpha virt. eigenvalues --    2.82182   2.84866   2.90484   2.94545   2.97307
 Alpha virt. eigenvalues --    2.97428   2.99392   3.00316   3.00920   3.02257
 Alpha virt. eigenvalues --    3.05789   3.07252   3.08937   3.10824   3.12907
 Alpha virt. eigenvalues --    3.14675   3.15109   3.16150   3.17057   3.17129
 Alpha virt. eigenvalues --    3.17598   3.18045   3.22150   3.29275   3.33694
 Alpha virt. eigenvalues --    3.35030   3.37026   3.38249   3.41321   3.43675
 Alpha virt. eigenvalues --    3.45990   3.90668   3.95721   3.98528   3.99650
 Alpha virt. eigenvalues --    4.13842   4.16140   4.17673   4.19114   4.19704
 Alpha virt. eigenvalues --    4.22827   4.30592   4.40472   4.41440   4.46896
 Alpha virt. eigenvalues --    4.54164   4.64100   4.76357   4.92137   5.10036
          Condensed to atoms (all electrons):
               1          2          3          4          5          6
     1  O    8.260640   0.324738  -0.074293  -0.085356  -0.001627   0.000800
     2  N    0.324738   5.233251   0.373905   0.205971  -0.039222   0.002983
     3  O   -0.074293   0.373905   8.182275  -0.084218   0.003371  -0.000084
     4  O   -0.085356   0.205971  -0.084218   8.420320   0.131792  -0.028867
     5  C   -0.001627  -0.039222   0.003371   0.131792   4.907456   0.294303
     6  C    0.000800   0.002983  -0.000084  -0.028867   0.294303   5.283746
     7  C    0.000010  -0.000007   0.000000   0.000826  -0.030874   0.370191
     8  O    0.000000   0.000001   0.000000  -0.000001   0.000386  -0.066354
     9  N   -0.000001  -0.000001   0.000000  -0.000009  -0.001943   0.001688
    10  O    0.000000   0.000000   0.000000   0.000000  -0.000183  -0.000095
    11  O    0.000003   0.000000   0.000000   0.000047   0.002031  -0.002633
    12  O    0.000000   0.000000   0.000000  -0.000003   0.000811  -0.029121
    13  N    0.000000   0.000000   0.000000   0.000005   0.000197  -0.000352
    14  O   -0.000001  -0.000001   0.000000   0.000106  -0.005473  -0.022812
    15  O    0.000000   0.000000   0.000000   0.000000  -0.000009   0.000003
    16  O    0.000000   0.000000   0.000000  -0.000006   0.002240  -0.061098
    17  N    0.000000   0.000000   0.000000   0.000000  -0.000026  -0.004453
    18  O    0.000000   0.000000   0.000000   0.000000  -0.000001  -0.000387
    19  O    0.000000   0.000000   0.000000   0.000000   0.000253  -0.005604
    20  H    0.002119  -0.002917   0.000001  -0.029575   0.399946  -0.036368
    21  H    0.001874  -0.003360  -0.000002  -0.032567   0.403101  -0.046147
    22  H   -0.000006  -0.000102  -0.000004   0.001344  -0.021399   0.371319
    23  H   -0.000002  -0.000169  -0.000002   0.001876  -0.037462   0.382149
               7          8          9         10         11         12
     1  O    0.000010   0.000000  -0.000001   0.000000   0.000003   0.000000
     2  N   -0.000007   0.000001  -0.000001   0.000000   0.000000   0.000000
     3  O    0.000000   0.000000   0.000000   0.000000   0.000000   0.000000
     4  O    0.000826  -0.000001  -0.000009   0.000000   0.000047  -0.000003
     5  C   -0.030874   0.000386  -0.001943  -0.000183   0.002031   0.000811
     6  C    0.370191  -0.066354   0.001688  -0.000095  -0.002633  -0.029121
     7  C    4.171342   0.166984  -0.019716   0.002237   0.013026   0.178663
     8  O    0.166984   8.471957   0.182946  -0.084865  -0.090606  -0.027354
     9  N   -0.019716   0.182946   5.241429   0.377094   0.307044  -0.003020
    10  O    0.002237  -0.084865   0.377094   8.148171  -0.075328  -0.000205
    11  O    0.013026  -0.090606   0.307044  -0.075328   8.289307  -0.016915
    12  O    0.178663  -0.027354  -0.003020  -0.000205  -0.016915   8.468125
    13  N   -0.016179   0.000692   0.000391   0.000006  -0.000600   0.168012
    14  O    0.005646  -0.000114  -0.000056  -0.000001   0.000333  -0.089756
    15  O    0.001332  -0.000021   0.000016   0.000000  -0.000237  -0.079764
    16  O    0.176295  -0.033680   0.000848  -0.000035  -0.000055  -0.038333
    17  N   -0.013758   0.000697  -0.000004   0.000000   0.000005  -0.002396
    18  O    0.002481  -0.000037   0.000000   0.000000   0.000000  -0.000167
    19  O    0.009147  -0.000057   0.000005   0.000000  -0.000001  -0.008871
    20  H    0.000038   0.000199  -0.000347  -0.000007   0.000212   0.000306
    21  H   -0.001478   0.001953  -0.000551   0.000090  -0.001311   0.000032
    22  H   -0.020074   0.002073  -0.000026   0.000001   0.000019  -0.000052
    23  H   -0.027148  -0.000570   0.000104  -0.000004   0.000025   0.001236
              13         14         15         16         17         18
     1  O    0.000000  -0.000001   0.000000   0.000000   0.000000   0.000000
     2  N    0.000000  -0.000001   0.000000   0.000000   0.000000   0.000000
     3  O    0.000000   0.000000   0.000000   0.000000   0.000000   0.000000
     4  O    0.000005   0.000106   0.000000  -0.000006   0.000000   0.000000
     5  C    0.000197  -0.005473  -0.000009   0.002240  -0.000026  -0.000001
     6  C   -0.000352  -0.022812   0.000003  -0.061098  -0.004453  -0.000387
     7  C   -0.016179   0.005646   0.001332   0.176295  -0.013758   0.002481
     8  O    0.000692  -0.000114  -0.000021  -0.033680   0.000697  -0.000037
     9  N    0.000391  -0.000056   0.000016   0.000848  -0.000004   0.000000
    10  O    0.000006  -0.000001   0.000000  -0.000035   0.000000   0.000000
    11  O   -0.000600   0.000333  -0.000237  -0.000055   0.000005   0.000000
    12  O    0.168012  -0.089756  -0.079764  -0.038333  -0.002396  -0.000167
    13  N    5.201567   0.319247   0.382366   0.000996   0.000397   0.000005
    14  O    0.319247   8.286650  -0.078447  -0.000080  -0.000088  -0.000001
    15  O    0.382366  -0.078447   8.146180  -0.000029   0.000027   0.000000
    16  O    0.000996  -0.000080  -0.000029   8.463498   0.184724  -0.083995
    17  N    0.000397  -0.000088   0.000027   0.184724   5.228122   0.376049
    18  O    0.000005  -0.000001   0.000000  -0.083995   0.376049   8.154258
    19  O   -0.001283   0.000290  -0.000325  -0.088740   0.309602  -0.075810
    20  H   -0.000601   0.002740  -0.000013  -0.000015  -0.000001   0.000000
    21  H   -0.000001   0.000243   0.000000  -0.000026  -0.000003   0.000000
    22  H   -0.000320  -0.001565  -0.000027   0.000466  -0.001082  -0.000006
    23  H   -0.000027   0.000833   0.000002  -0.003478   0.000100  -0.000073
              19         20         21         22         23
     1  O    0.000000   0.002119   0.001874  -0.000006  -0.000002
     2  N    0.000000  -0.002917  -0.003360  -0.000102  -0.000169
     3  O    0.000000   0.000001  -0.000002  -0.000004  -0.000002
     4  O    0.000000  -0.029575  -0.032567   0.001344   0.001876
     5  C    0.000253   0.399946   0.403101  -0.021399  -0.037462
     6  C   -0.005604  -0.036368  -0.046147   0.371319   0.382149
     7  C    0.009147   0.000038  -0.001478  -0.020074  -0.027148
     8  O   -0.000057   0.000199   0.001953   0.002073  -0.000570
     9  N    0.000005  -0.000347  -0.000551  -0.000026   0.000104
    10  O    0.000000  -0.000007   0.000090   0.000001  -0.000004
    11  O   -0.000001   0.000212  -0.001311   0.000019   0.000025
    12  O   -0.008871   0.000306   0.000032  -0.000052   0.001236
    13  N   -0.001283  -0.000601  -0.000001  -0.000320  -0.000027
    14  O    0.000290   0.002740   0.000243  -0.001565   0.000833
    15  O   -0.000325  -0.000013   0.000000  -0.000027   0.000002
    16  O   -0.088740  -0.000015  -0.000026   0.000466  -0.003478
    17  N    0.309602  -0.000001  -0.000003  -0.001082   0.000100
    18  O   -0.075810   0.000000   0.000000  -0.000006  -0.000073
    19  O    8.291557   0.000006  -0.000003   0.002034   0.000208
    20  H    0.000006   0.445892  -0.029569  -0.002406   0.003250
    21  H   -0.000003  -0.029569   0.504821   0.003377  -0.004471
    22  H    0.002034  -0.002406   0.003377   0.415666  -0.025056
    23  H    0.000208   0.003250  -0.004471  -0.025056   0.461555
 Mulliken charges:
               1
     1  O   -0.428898
     2  N    0.904931
     3  O   -0.400950
     4  O   -0.501683
     5  C   -0.007670
     6  C   -0.402807
     7  C    1.031015
     8  O   -0.524228
     9  N    0.914106
    10  O   -0.366879
    11  O   -0.424365
    12  O   -0.521228
    13  N    0.945480
    14  O   -0.417693
    15  O   -0.371052
    16  O   -0.519496
    17  N    0.922087
    18  O   -0.372318
    19  O   -0.432408
    20  H    0.247109
    21  H    0.203998
    22  H    0.275824
    23  H    0.247124
 Sum of Mulliken charges =   0.00000
 Mulliken charges with hydrogens summed into heavy atoms:
               1
     1  O   -0.428898
     2  N    0.904931
     3  O   -0.400950
     4  O   -0.501683
     5  C    0.443437
     6  C    0.120142
     7  C    1.031015
     8  O   -0.524228
     9  N    0.914106
    10  O   -0.366879
    11  O   -0.424365
    12  O   -0.521228
    13  N    0.945480
    14  O   -0.417693
    15  O   -0.371052
    16  O   -0.519496
    17  N    0.922087
    18  O   -0.372318
    19  O   -0.432408
 Electronic spatial extent (au):  <R**2>=           5036.3283
 Charge=              0.0000 electrons
 Dipole moment (field-independent basis, Debye):
    X=             -1.4375    Y=             -0.0891    Z=             -1.4927  Tot=              2.0742
 Quadrupole moment (field-independent basis, Debye-Ang):
   XX=           -128.5009   YY=           -116.6589   ZZ=           -112.4145
   XY=             -0.1412   XZ=             -1.6306   YZ=              0.8645
 Traceless Quadrupole moment (field-independent basis, Debye-Ang):
   XX=             -9.3095   YY=              2.5326   ZZ=              6.7769
   XY=             -0.1412   XZ=             -1.6306   YZ=              0.8645
 Octapole moment (field-independent basis, Debye-Ang**2):
  XXX=            -77.0938  YYY=             -6.3314  ZZZ=             -4.1098  XYY=             -7.3226
  XXY=             35.5152  XXZ=              1.4262  XZZ=             22.9155  YZZ=             -5.7305
  YYZ=              8.1677  XYZ=              4.3303
 Hexadecapole moment (field-independent basis, Debye-Ang**3):
 XXXX=          -3925.9435 YYYY=          -1591.5117 ZZZZ=          -1014.2633 XXXY=             48.4853
 XXXZ=            -34.5054 YYYX=             -8.6831 YYYZ=             24.7621 ZZZX=              6.6159
 ZZZY=              1.0825 XXYY=           -924.5690 XXZZ=           -745.5056 YYZZ=           -429.4853
 XXYZ=            -36.7226 YYXZ=             -7.7021 ZZXY=             -3.7215
 N-N= 1.661795108568D+03 E-N=-6.220312349911D+03  KE= 1.225753390236D+03
 Calling FoFJK, ICntrl=      2127 FMM=F ISym2X=0 I1Cent= 0 IOpClX= 0 NMat=1 NMatS=1 NMatT=0.
 ***** Axes restored to original set *****
 -------------------------------------------------------------------
 Center     Atomic                   Forces (Hartrees/Bohr)
 Number     Number              X              Y              Z
 -------------------------------------------------------------------
      1        8           0.004893957   -0.083073723    0.032884343
      2        7           0.019143832   -0.003040965    0.002546008
      3        8          -0.070779205    0.054581364   -0.043859082
      4        8           0.037964981    0.027916623    0.004748715
      5        6          -0.009099134    0.026535004   -0.007497628
      6        6           0.014167936   -0.022772156    0.022489748
      7        6           0.015988338   -0.025458813   -0.008034259
      8        8          -0.021351348    0.030545271    0.023510804
      9        7           0.013659258    0.033868183   -0.018570897
     10        8          -0.015327083   -0.044143868    0.094500319
     11        8          -0.000217700   -0.027261326   -0.078742909
     12        8           0.027135368   -0.010049840    0.016440539
     13        7          -0.009825242    0.022130665    0.043841167
     14        8          -0.080341379    0.026073584   -0.036250368
     15        8           0.084948072   -0.053674883   -0.041778871
     16        8          -0.016954847    0.007261119    0.030163657
     17        7          -0.018390240   -0.030721262    0.005112965
     18        8           0.043528887    0.083674306    0.046503504
     19        8          -0.005867048   -0.026276810   -0.078173593
     20        1           0.005774825   -0.010080382   -0.008678366
     21        1          -0.000828922   -0.001831868    0.013186333
     22        1          -0.003859634    0.012396974   -0.010722947
     23        1          -0.014363672    0.013402802   -0.003619180
 -------------------------------------------------------------------
 Cartesian Forces:  Max     0.094500319 RMS     0.036253880

 GradGradGradGradGradGradGradGradGradGradGradGradGradGradGradGradGradGrad
 Berny optimization.
 FormGI is forming the generalized inverse of G from B-inverse, IUseBI=4.
 Internal  Forces:  Max     0.108756178 RMS     0.030428448
 Search for a local minimum.
 Step number   1 out of a maximum of  108
 All quantities printed in internal units (Hartrees-Bohrs-Radians)
 Mixed Optimization -- RFO/linear search
 Second derivative matrix not updated -- first step.
 ITU=  0
     Eigenvalues ---    0.00230   0.00329   0.00846   0.00963   0.01060
     Eigenvalues ---    0.01239   0.01251   0.01258   0.01294   0.01370
     Eigenvalues ---    0.02755   0.02890   0.02948   0.02975   0.03011
     Eigenvalues ---    0.04176   0.04627   0.05383   0.05771   0.07981
     Eigenvalues ---    0.09445   0.11125   0.13037   0.13539   0.13745
     Eigenvalues ---    0.19164   0.19526   0.21905   0.22038   0.24979
     Eigenvalues ---    0.24997   0.24999   0.24999   0.25000   0.25000
     Eigenvalues ---    0.25000   0.25000   0.25000   0.25000   0.25000
     Eigenvalues ---    0.25000   0.26065   0.29143   0.33476   0.34126
     Eigenvalues ---    0.34148   0.34528   0.36478   0.37585   0.40974
     Eigenvalues ---    0.41817   0.42797   0.44924   0.45070   0.45166
     Eigenvalues ---    0.90485   0.91636   0.91913   0.92353   0.92362
     Eigenvalues ---    0.92369   0.92624   0.93438
 RFO step:  Lambda=-1.11946631D-01 EMin= 2.30000000D-03
 Linear search not attempted -- first point.
 Maximum step size (   0.300) exceeded in Quadratic search.
    -- Step size scaled by   0.759
 Iteration  1 RMS(Cart)=  0.08574615 RMS(Int)=  0.00319542
 Iteration  2 RMS(Cart)=  0.00476161 RMS(Int)=  0.00032498
 Iteration  3 RMS(Cart)=  0.00001134 RMS(Int)=  0.00032493
 Iteration  4 RMS(Cart)=  0.00000000 RMS(Int)=  0.00032493
 Variable       Old X    -DE/DX   Delta X   Delta X   Delta X     New X
                                 (Linear)    (Quad)   (Total)
    R1        2.32710  -0.08930   0.00000  -0.06666  -0.06666   2.26044
    R2        2.32188  -0.09952   0.00000  -0.07345  -0.07345   2.24842
    R3        2.67920  -0.05699   0.00000  -0.08012  -0.08012   2.59908
    R4        2.70251  -0.00608   0.00000  -0.00885  -0.00885   2.69366
    R5        2.89706  -0.00411   0.00000  -0.00773  -0.00773   2.88932
    R6        2.06448  -0.01424   0.00000  -0.02365  -0.02365   2.04084
    R7        2.07117  -0.01264   0.00000  -0.02117  -0.02117   2.05001
    R8        2.96576  -0.01870   0.00000  -0.03809  -0.03809   2.92766
    R9        2.07081  -0.01451   0.00000  -0.02429  -0.02429   2.04652
   R10        2.08223  -0.01237   0.00000  -0.02103  -0.02103   2.06121
   R11        2.74973  -0.02718   0.00000  -0.04229  -0.04229   2.70744
   R12        2.69156  -0.03200   0.00000  -0.04581  -0.04581   2.64575
   R13        2.76641  -0.02977   0.00000  -0.04741  -0.04741   2.71900
   R14        2.65084  -0.03754   0.00000  -0.05055  -0.05055   2.60028
   R15        2.31747  -0.10541   0.00000  -0.07706  -0.07706   2.24040
   R16        2.31863  -0.08299   0.00000  -0.06083  -0.06083   2.25780
   R17        2.65194  -0.03483   0.00000  -0.04699  -0.04699   2.60496
   R18        2.31388  -0.09164   0.00000  -0.06648  -0.06648   2.24740
   R19        2.32064  -0.10876   0.00000  -0.08006  -0.08006   2.24058
   R20        2.65364  -0.04227   0.00000  -0.05717  -0.05717   2.59647
   R21        2.31860  -0.10516   0.00000  -0.07707  -0.07707   2.24153
   R22        2.31867  -0.08243   0.00000  -0.06042  -0.06042   2.25825
    A1        2.27182  -0.00637   0.00000  -0.01331  -0.01332   2.25849
    A2        2.04307   0.00631   0.00000   0.01327   0.01326   2.05634
    A3        1.96806   0.00008   0.00000   0.00021   0.00020   1.96826
    A4        1.96626   0.00881   0.00000   0.01847   0.01847   1.98473
    A5        1.87044  -0.02421   0.00000  -0.05664  -0.05645   1.81399
    A6        1.90709   0.00709   0.00000   0.01301   0.01318   1.92027
    A7        1.90400   0.00478   0.00000   0.00619   0.00647   1.91047
    A8        1.95293   0.00749   0.00000   0.01910   0.01892   1.97185
    A9        1.90640   0.00904   0.00000   0.02405   0.02383   1.93024
   A10        1.92179  -0.00460   0.00000  -0.00699  -0.00741   1.91438
   A11        2.07243  -0.00120   0.00000  -0.00514  -0.00510   2.06733
   A12        1.90483   0.00191   0.00000   0.00871   0.00858   1.91341
   A13        1.83421   0.00820   0.00000   0.02696   0.02671   1.86092
   A14        1.95821  -0.00183   0.00000  -0.00841  -0.00839   1.94982
   A15        1.87316  -0.01060   0.00000  -0.03887  -0.03880   1.83436
   A16        1.79558   0.00470   0.00000   0.02172   0.02124   1.81682
   A17        1.84957   0.01320   0.00000   0.03755   0.03793   1.88750
   A18        2.21864   0.00324   0.00000   0.01583   0.01604   2.23467
   A19        1.81538   0.01503   0.00000   0.04462   0.04486   1.86024
   A20        1.92676  -0.01186   0.00000  -0.03666  -0.03770   1.88906
   A21        1.72826  -0.01253   0.00000  -0.04332  -0.04468   1.68357
   A22        1.86113  -0.01051   0.00000  -0.03119  -0.03247   1.82866
   A23        2.02540   0.02014   0.00000   0.04223   0.04223   2.06763
   A24        1.96464  -0.00544   0.00000  -0.01140  -0.01140   1.95323
   A25        2.04566   0.01112   0.00000   0.02334   0.02334   2.06900
   A26        2.27143  -0.00568   0.00000  -0.01190  -0.01190   2.25953
   A27        2.08779   0.03243   0.00000   0.06801   0.06801   2.15581
   A28        2.06303   0.01381   0.00000   0.02895   0.02895   2.09198
   A29        1.95652  -0.01126   0.00000  -0.02360  -0.02360   1.93292
   A30        2.26356  -0.00255   0.00000  -0.00534  -0.00534   2.25821
   A31        2.02030   0.01164   0.00000   0.02440   0.02440   2.04470
   A32        1.96361  -0.00514   0.00000  -0.01078  -0.01078   1.95283
   A33        2.05034   0.01007   0.00000   0.02112   0.02112   2.07146
   A34        2.26919  -0.00493   0.00000  -0.01034  -0.01034   2.25885
    D1       -3.11747  -0.00171   0.00000  -0.00903  -0.00899  -3.12646
    D2       -0.04113   0.00073   0.00000   0.00423   0.00428  -0.03685
    D3        3.12116  -0.00056   0.00000  -0.00314  -0.00319   3.11797
    D4        3.11199   0.00039   0.00000   0.00125   0.00132   3.11331
    D5       -1.05184  -0.00098   0.00000  -0.00213  -0.00211  -1.05396
    D6        1.04999   0.00061   0.00000   0.00101   0.00092   1.05091
    D7        3.12310   0.00256   0.00000   0.01070   0.01079   3.13390
    D8        0.84944   0.00441   0.00000   0.01893   0.01910   0.86854
    D9       -1.06609  -0.00553   0.00000  -0.02187  -0.02200  -1.08810
   D10        1.03287   0.00496   0.00000   0.01978   0.01998   1.05285
   D11       -1.24080   0.00681   0.00000   0.02800   0.02829  -1.21251
   D12        3.12686  -0.00313   0.00000  -0.01279  -0.01281   3.11404
   D13       -1.09964  -0.00047   0.00000  -0.00078  -0.00093  -1.10056
   D14        2.90988   0.00138   0.00000   0.00745   0.00738   2.91726
   D15        0.99435  -0.00856   0.00000  -0.03335  -0.03372   0.96063
   D16        0.89930   0.00253   0.00000   0.01080   0.01076   0.91007
   D17       -1.40733   0.00173   0.00000   0.00624   0.00632  -1.40101
   D18        2.71200  -0.00145   0.00000  -0.00824  -0.00812   2.70388
   D19       -3.13459   0.00233   0.00000   0.01017   0.01005  -3.12454
   D20        0.84197   0.00153   0.00000   0.00560   0.00561   0.84757
   D21       -1.32190  -0.00165   0.00000  -0.00888  -0.00883  -1.33073
   D22       -1.17459   0.00099   0.00000   0.00969   0.00957  -1.16503
   D23        2.80196   0.00018   0.00000   0.00513   0.00512   2.80708
   D24        0.63810  -0.00300   0.00000  -0.00935  -0.00932   0.62878
   D25       -1.68334   0.00548   0.00000   0.02167   0.02151  -1.66183
   D26        0.77591   0.01165   0.00000   0.04584   0.04498   0.82089
   D27        2.72386  -0.00962   0.00000  -0.02060  -0.01957   2.70429
   D28        0.04891   0.00077   0.00000   0.00730   0.00731   0.05623
   D29       -2.22888  -0.00967   0.00000  -0.02608  -0.02541  -2.25428
   D30        2.19378   0.01474   0.00000   0.05401   0.05332   2.24711
   D31        1.32164  -0.00241   0.00000  -0.00420  -0.00398   1.31765
   D32       -3.05784   0.01143   0.00000   0.03319   0.03219  -3.02566
   D33       -1.05833  -0.00978   0.00000  -0.03381  -0.03302  -1.09135
   D34       -2.97633   0.00357   0.00000   0.02246   0.02246  -2.95387
   D35        0.21729   0.00375   0.00000   0.02218   0.02218   0.23947
   D36       -3.08105  -0.00042   0.00000  -0.00166  -0.00165  -3.08271
   D37        0.06065   0.00168   0.00000   0.01030   0.01030   0.07095
   D38       -3.09270   0.00173   0.00000   0.01052   0.01052  -3.08218
   D39        3.12743   0.00003   0.00000   0.00020   0.00020   3.12764
   D40       -3.12934  -0.00092   0.00000  -0.00573  -0.00573  -3.13507
   D41        0.00320  -0.00098   0.00000  -0.00588  -0.00588  -0.00268
   D42        3.13110   0.00003   0.00000   0.00004   0.00004   3.13114
         Item               Value     Threshold  Converged?
 Maximum Force            0.108756     0.000450     NO 
 RMS     Force            0.030428     0.000300     NO 
 Maximum Displacement     0.311526     0.001800     NO 
 RMS     Displacement     0.085317     0.001200     NO 
 Predicted change in Energy=-5.851875D-02
 GradGradGradGradGradGradGradGradGradGradGradGradGradGradGradGradGradGrad

                          Input orientation:                          
 ---------------------------------------------------------------------
 Center     Atomic      Atomic             Coordinates (Angstroms)
 Number     Number       Type             X           Y           Z
 ---------------------------------------------------------------------
      1          8           0        3.734790    1.240439    0.634120
      2          7           0        3.677783    0.098654    0.986123
      3          8           0        4.512875   -0.576207    1.498805
      4          8           0        2.500890   -0.580585    0.773480
      5          6           0        1.475801    0.218043    0.187631
      6          6           0        0.306551   -0.751968    0.015404
      7          6           0       -1.012172   -0.216970   -0.596913
      8          8           0       -0.696486    0.444018   -1.828219
      9          7           0       -0.513345    1.807695   -1.812368
     10          8           0       -0.461706    2.259923   -2.907083
     11          8           0       -0.376647    2.353173   -0.758205
     12          8           0       -2.028397    0.505345    0.040070
     13          7           0       -1.962804    0.913378    1.355145
     14          8           0       -0.975178    0.716354    1.987718
     15          8           0       -2.969544    1.449230    1.679384
     16          8           0       -1.679485   -1.347240   -1.186340
     17          7           0       -2.298781   -2.226022   -0.330725
     18          8           0       -2.811288   -3.123313   -0.913129
     19          8           0       -2.250871   -2.012758    0.844131
     20          1           0        1.241041    1.050820    0.833923
     21          1           0        1.811034    0.586521   -0.776044
     22          1           0        0.131687   -1.279669    0.944800
     23          1           0        0.644251   -1.528858   -0.671708
 ---------------------------------------------------------------------
                    Distance matrix (angstroms):
                    1          2          3          4          5
     1  O    0.000000
     2  N    1.196173   0.000000
     3  O    2.157151   1.189814   0.000000
     4  O    2.204101   1.375376   2.138737   0.000000
     5  C    2.519460   2.345329   3.402033   1.425424   0.000000
     6  C    4.013143   3.609855   4.463690   2.327912   1.528963
     7  C    5.115968   4.959969   5.920069   3.788377   2.644759
     8  O    5.131628   5.212871   6.264774   4.247572   2.972128
     9  N    4.934950   5.321459   6.473773   4.634232   3.237852
    10  O    5.584805   6.079763   7.225091   5.512895   4.183356
    11  O    4.481144   4.956202   6.130480   4.385569   2.980763
    12  O    5.840169   5.798353   6.788659   4.715037   3.519050
    13  N    5.752340   5.711056   6.646346   4.742870   3.697374
    14  O    4.928559   4.799457   5.659371   3.903777   3.081546
    15  O    6.788539   6.818476   7.753811   5.904782   4.847910
    16  O    6.270928   5.959071   6.793366   4.680192   3.780706
    17  N    7.025045   6.546566   7.243461   5.192647   4.526546
    18  O    8.017945   7.489744   8.120870   6.126120   5.545760
    19  O    6.815829   6.295010   6.945540   4.963400   4.392669
    20  H    2.508916   2.620590   3.714052   2.062124   1.079964
    21  H    2.473259   2.613044   3.718443   2.058899   1.084817
    22  H    4.407926   3.804770   4.471754   2.476124   2.150136
    23  H    4.350359   3.820931   4.537060   2.536710   2.116980
                    6          7          8          9         10
     6  C    0.000000
     7  C    1.549253   0.000000
     8  O    2.415660   1.432717   0.000000
     9  N    3.250362   2.413592   1.376011   0.000000
    10  O    4.266455   3.431457   2.125224   1.185571   0.000000
    11  O    3.272175   2.652459   2.211809   1.194777   2.152582
    12  O    2.652061   1.400071   2.295266   2.724522   3.770779
    13  N    3.117412   2.447839   3.457985   3.596369   4.715195
    14  O    2.772873   2.748231   3.835780   3.980574   5.158036
    15  O    4.283328   3.433519   4.298898   4.284127   5.289816
    16  O    2.396430   1.438834   2.141706   3.421317   4.177986
    17  N    3.013370   2.400523   3.455279   4.653377   5.489641
    18  O    4.025714   3.432731   4.246838   5.513984   6.202872
    19  O    2.969308   2.614544   3.948837   4.967076   5.960580
    20  H    2.189358   2.954920   3.348017   3.263983   4.284437
    21  H    2.163657   2.940778   2.723057   2.822759   3.536517
    22  H    1.082970   2.194225   3.368472   4.189255   5.264773
    23  H    1.090744   2.114328   2.650912   3.711296   4.535957
                   11         12         13         14         15
    11  O    0.000000
    12  O    2.603841   0.000000
    13  N    3.009178   1.378483   0.000000
    14  O    3.252308   2.224214   1.189273   0.000000
    15  O    3.671794   2.112825   1.185662   2.147014   0.000000
    16  O    3.946358   2.248976   3.413182   3.850859   4.206765
    17  N    4.984612   2.769650   3.579228   3.972993   4.242397
    18  O    5.995279   3.832580   4.707427   5.150655   5.258737
    19  O    5.014135   2.652707   2.984358   3.222303   3.633111
    20  H    2.616851   3.408368   3.248874   2.520861   4.313069
    21  H    2.811997   3.926049   4.346338   3.926604   5.443098
    22  H    4.044276   2.944618   3.060184   2.509369   4.195728
    23  H    4.014957   3.433316   4.107236   3.838760   5.239863
                   16         17         18         19         20
    16  O    0.000000
    17  N    1.373995   0.000000
    18  O    2.123689   1.186165   0.000000
    19  O    2.211833   1.195016   2.152989   0.000000
    20  H    4.285047   4.962302   6.074286   4.645327   0.000000
    21  H    4.011421   4.999929   5.928534   5.087267   1.769875
    22  H    2.797619   2.903399   3.938531   2.494822   2.583435
    23  H    2.386961   3.043641   3.813308   3.303583   3.045952
                   21         22         23
    21  H    0.000000
    22  H    3.043711   0.000000
    23  H    2.418077   1.714036   0.000000
 Stoichiometry    C3H4N4O12
 Framework group  C1[X(C3H4N4O12)]
 Deg. of freedom    63
 Full point group                 C1      NOp   1
 Largest Abelian subgroup         C1      NOp   1
 Largest concise Abelian subgroup C1      NOp   1
                         Standard orientation:                         
 ---------------------------------------------------------------------
 Center     Atomic      Atomic             Coordinates (Angstroms)
 Number     Number       Type             X           Y           Z
 ---------------------------------------------------------------------
      1          8           0        4.117716    0.449569    0.156420
      2          7           0        3.925642   -0.720958    0.002127
      3          8           0        4.707082   -1.617872   -0.021447
      4          8           0        2.630299   -1.138044   -0.197326
      5          6           0        1.673402   -0.082966   -0.142610
      6          6           0        0.342167   -0.778021   -0.429728
      7          6           0       -0.949617    0.077174   -0.440729
      8          8           0       -0.741059    1.189222   -1.319666
      9          7           0       -0.325020    2.383958   -0.778443
     10          8           0       -0.385119    3.270169   -1.563679
     11          8           0        0.083197    2.390696    0.344413
     12          8           0       -1.700723    0.519539    0.654877
     13          7           0       -1.340330    0.293307    1.966042
     14          8           0       -0.307746   -0.242901    2.212256
     15          8           0       -2.168272    0.707692    2.706711
     16          8           0       -1.893549   -0.615455   -1.277091
     17          7           0       -2.498831   -1.730361   -0.749380
     18          8           0       -3.251153   -2.230683   -1.517935
     19          8           0       -2.213376   -2.066547    0.361277
     20          1           0        1.700862    0.391223    0.827294
     21          1           0        1.896405    0.647542   -0.912971
     22          1           0        0.241273   -1.648155    0.207070
     23          1           0        0.417176   -1.192442   -1.435885
 ---------------------------------------------------------------------
 Rotational constants (GHZ):           0.4694975           0.2560394           0.2278561
 Standard basis: 6-31G(d) (6D, 7F)
 There are   293 symmetry adapted cartesian basis functions of A   symmetry.
 There are   293 symmetry adapted basis functions of A   symmetry.
   293 basis functions,   548 primitive gaussians,   293 cartesian basis functions
    73 alpha electrons       73 beta electrons
       nuclear repulsion energy      1678.0723604560 Hartrees.
 NAtoms=   23 NActive=   23 NUniq=   23 SFac= 1.00D+00 NAtFMM=   60 NAOKFM=F Big=F
 Integral buffers will be    131072 words long.
 Raffenetti 1 integral format.
 Two-electron integral symmetry is turned on.
 One-electron integrals computed using PRISM.
 NBasis=   293 RedAO= T EigKep=  1.38D-03  NBF=   293
 NBsUse=   293 1.00D-06 EigRej= -1.00D+00 NBFU=   293
 Initial guess from the checkpoint file:  "C:\g16w\Scratch\Gau-25676.chk"
 B after Tr=     0.000000    0.000000    0.000000
         Rot=    0.999822    0.009469    0.002829   -0.016069 Ang=   2.16 deg.
 ExpMin= 1.61D-01 ExpMax= 5.48D+03 ExpMxC= 8.25D+02 IAcc=3 IRadAn=         5 AccDes= 0.00D+00
 Harris functional with IExCor=  205 and IRadAn=       5 diagonalized for initial guess.
 HarFok:  IExCor=  205 AccDes= 0.00D+00 IRadAn=         5 IDoV= 1 UseB2=F ITyADJ=14
 ICtDFT=  3500011 ScaDFX=  1.000000  1.000000  1.000000  1.000000
 FoFCou: FMM=F IPFlag=           0 FMFlag=      100000 FMFlg1=           0
         NFxFlg=           0 DoJE=T BraDBF=F KetDBF=T FulRan=T
         wScrn=  0.000000 ICntrl=       500 IOpCl=  0 I1Cent=   200000004 NGrid=           0
         NMat0=    1 NMatS0=      1 NMatT0=    0 NMatD0=    1 NMtDS0=    0 NMtDT0=    0
 Petite list used in FoFCou.
 Requested convergence on RMS density matrix=1.00D-08 within 128 cycles.
 Requested convergence on MAX density matrix=1.00D-06.
 Requested convergence on             energy=1.00D-06.
 No special actions if energy rises.
 Integral accuracy reduced to 1.0D-05 until final iterations.
 Initial convergence to 1.0D-05 achieved.  Increase integral accuracy.
 SCF Done:  E(RHF) =  -1231.33608084     A.U. after   15 cycles
            NFock= 15  Conv=0.60D-08     -V/T= 2.0032
 Calling FoFJK, ICntrl=      2127 FMM=F ISym2X=0 I1Cent= 0 IOpClX= 0 NMat=1 NMatS=1 NMatT=0.
 ***** Axes restored to original set *****
 -------------------------------------------------------------------
 Center     Atomic                   Forces (Hartrees/Bohr)
 Number     Number              X              Y              Z
 -------------------------------------------------------------------
      1        8          -0.001195853   -0.027703576    0.009665448
      2        7           0.002780724   -0.010954548    0.001343997
      3        8          -0.022572265    0.020935180   -0.013863029
      4        8           0.020775830    0.017225463    0.002138627
      5        6          -0.009409308    0.010358644   -0.004978518
      6        6           0.005212056   -0.009307152    0.014185484
      7        6           0.005463546   -0.016206268   -0.014274913
      8        8          -0.009157689    0.016130165    0.013653470
      9        7           0.007610485    0.010020169   -0.016654033
     10        8          -0.003833106   -0.013959610    0.035715751
     11        8          -0.003881430   -0.014280532   -0.022112938
     12        8           0.016372019   -0.002999418    0.007866765
     13        7          -0.012817418    0.013945999    0.016681261
     14        8          -0.021066259    0.001338416   -0.021296542
     15        8           0.032222738   -0.018424440   -0.011606922
     16        8          -0.005703324    0.003656142    0.018007803
     17        7          -0.007735030   -0.015747425   -0.007135732
     18        8           0.015363091    0.028613763    0.019231259
     19        8           0.000323003   -0.003523840   -0.026001843
     20        1           0.002014494   -0.003607856   -0.001754519
     21        1           0.000662381   -0.000777075    0.005512870
     22        1          -0.004536708    0.007687179   -0.001132232
     23        1          -0.006891980    0.007580620   -0.003191516
 -------------------------------------------------------------------
 Cartesian Forces:  Max     0.035715751 RMS     0.014004860

 GradGradGradGradGradGradGradGradGradGradGradGradGradGradGradGradGradGrad
 Berny optimization.
 Using GEDIIS/GDIIS optimizer.
 FormGI is forming the generalized inverse of G from B-inverse, IUseBI=4.
 Internal  Forces:  Max     0.038861091 RMS     0.011280072
 Search for a local minimum.
 Step number   2 out of a maximum of  108
 All quantities printed in internal units (Hartrees-Bohrs-Radians)
 Mixed Optimization -- RFO/linear search
 Update second derivatives using D2CorX and points    1    2
 DE= -5.78D-02 DEPred=-5.85D-02 R= 9.88D-01
 TightC=F SS=  1.41D+00  RLast= 3.23D-01 DXNew= 5.0454D-01 9.6857D-01
 Trust test= 9.88D-01 RLast= 3.23D-01 DXMaxT set to 5.05D-01
 ITU=  1  0
 Use linear search instead of GDIIS.
     Eigenvalues ---    0.00230   0.00329   0.00846   0.00964   0.01060
     Eigenvalues ---    0.01238   0.01251   0.01262   0.01294   0.01371
     Eigenvalues ---    0.02808   0.02871   0.02929   0.02953   0.03015
     Eigenvalues ---    0.03892   0.04683   0.05507   0.05790   0.07769
     Eigenvalues ---    0.09366   0.10920   0.12987   0.13301   0.15044
     Eigenvalues ---    0.19020   0.19323   0.21936   0.21952   0.24657
     Eigenvalues ---    0.24980   0.24999   0.24999   0.24999   0.25000
     Eigenvalues ---    0.25000   0.25000   0.25000   0.25000   0.25000
     Eigenvalues ---    0.25802   0.27757   0.29156   0.33500   0.34128
     Eigenvalues ---    0.34263   0.34656   0.36625   0.37677   0.40945
     Eigenvalues ---    0.41464   0.42620   0.44797   0.45004   0.45124
     Eigenvalues ---    0.87751   0.90675   0.91729   0.92110   0.92357
     Eigenvalues ---    0.92480   0.92705   0.93703
 RFO step:  Lambda=-1.72099692D-02 EMin= 2.29965601D-03
 Quartic linear search produced a step of  0.43237.
 Iteration  1 RMS(Cart)=  0.17012276 RMS(Int)=  0.00751174
 Iteration  2 RMS(Cart)=  0.01050225 RMS(Int)=  0.00075037
 Iteration  3 RMS(Cart)=  0.00005873 RMS(Int)=  0.00074965
 Iteration  4 RMS(Cart)=  0.00000001 RMS(Int)=  0.00074965
 Variable       Old X    -DE/DX   Delta X   Delta X   Delta X     New X
                                 (Linear)    (Quad)   (Total)
    R1        2.26044  -0.02935  -0.02882  -0.01550  -0.04432   2.21612
    R2        2.24842  -0.03369  -0.03176  -0.01863  -0.05039   2.19803
    R3        2.59908  -0.02715  -0.03464  -0.04211  -0.07675   2.52233
    R4        2.69366  -0.00017  -0.00382   0.00450   0.00067   2.69433
    R5        2.88932  -0.00205  -0.00334  -0.00442  -0.00776   2.88156
    R6        2.04084  -0.00427  -0.01022  -0.00237  -0.01259   2.02825
    R7        2.05001  -0.00496  -0.00915  -0.00674  -0.01590   2.03411
    R8        2.92766  -0.01202  -0.01647  -0.03540  -0.05187   2.87579
    R9        2.04652  -0.00398  -0.01050  -0.00094  -0.01145   2.03507
   R10        2.06121  -0.00552  -0.00909  -0.00939  -0.01848   2.04273
   R11        2.70744  -0.01212  -0.01829  -0.01905  -0.03734   2.67011
   R12        2.64575  -0.01765  -0.01981  -0.03193  -0.05174   2.59401
   R13        2.71900  -0.01293  -0.02050  -0.02002  -0.04052   2.67848
   R14        2.60028  -0.01811  -0.02186  -0.02731  -0.04917   2.55111
   R15        2.24040  -0.03847  -0.03332  -0.02379  -0.05711   2.18329
   R16        2.25780  -0.02647  -0.02630  -0.01298  -0.03928   2.21852
   R17        2.60496  -0.01648  -0.02032  -0.02442  -0.04474   2.56022
   R18        2.24740  -0.02904  -0.02874  -0.01393  -0.04268   2.20472
   R19        2.24058  -0.03886  -0.03462  -0.02343  -0.05805   2.18253
   R20        2.59647  -0.01822  -0.02472  -0.02424  -0.04896   2.54752
   R21        2.24153  -0.03773  -0.03332  -0.02280  -0.05612   2.18541
   R22        2.25825  -0.02618  -0.02612  -0.01272  -0.03884   2.21941
    A1        2.25849  -0.00196  -0.00576  -0.00099  -0.00679   2.25171
    A2        2.05634  -0.00074   0.00573  -0.01329  -0.00760   2.04874
    A3        1.96826   0.00271   0.00009   0.01444   0.01448   1.98274
    A4        1.98473   0.00952   0.00799   0.03782   0.04581   2.03054
    A5        1.81399  -0.00903  -0.02441  -0.01443  -0.03867   1.77532
    A6        1.92027   0.00253   0.00570  -0.00150   0.00421   1.92448
    A7        1.91047   0.00112   0.00280  -0.00463  -0.00136   1.90911
    A8        1.97185   0.00224   0.00818  -0.00095   0.00688   1.97873
    A9        1.93024   0.00454   0.01030   0.01834   0.02838   1.95862
   A10        1.91438  -0.00163  -0.00320   0.00218  -0.00151   1.91287
   A11        2.06733  -0.00135  -0.00221  -0.01428  -0.01684   2.05048
   A12        1.91341   0.00091   0.00371  -0.00768  -0.00522   1.90819
   A13        1.86092   0.00456   0.01155   0.02842   0.03959   1.90051
   A14        1.94982  -0.00179  -0.00363  -0.02630  -0.03044   1.91938
   A15        1.83436  -0.00509  -0.01678  -0.01166  -0.02801   1.80635
   A16        1.81682   0.00356   0.00918   0.04354   0.05196   1.86878
   A17        1.88750   0.01145   0.01640   0.04605   0.05922   1.94672
   A18        2.23467  -0.01241   0.00693  -0.11353  -0.10607   2.12860
   A19        1.86024   0.00884   0.01940   0.04141   0.05988   1.92011
   A20        1.88906  -0.00262  -0.01630  -0.00669  -0.02390   1.86516
   A21        1.68357  -0.00482  -0.01932   0.04170   0.01881   1.70238
   A22        1.82866   0.00116  -0.01404   0.03494   0.02230   1.85096
   A23        2.06763   0.00116   0.01826  -0.02364  -0.00538   2.06224
   A24        1.95323   0.00265  -0.00493   0.02292   0.01760   1.97083
   A25        2.06900  -0.00427   0.01009  -0.03872  -0.02901   2.03999
   A26        2.25953   0.00171  -0.00515   0.01835   0.01282   2.27235
   A27        2.15581  -0.00974   0.02941  -0.10017  -0.07077   2.08504
   A28        2.09198  -0.01018   0.01252  -0.07488  -0.06240   2.02958
   A29        1.93292   0.00362  -0.01021   0.03610   0.02585   1.95877
   A30        2.25821   0.00657  -0.00231   0.03896   0.03661   2.29483
   A31        2.04470   0.00284   0.01055  -0.00207   0.00848   2.05318
   A32        1.95283   0.00261  -0.00466   0.02162   0.01695   1.96979
   A33        2.07146  -0.00326   0.00913  -0.03236  -0.02323   2.04822
   A34        2.25885   0.00065  -0.00447   0.01079   0.00632   2.26517
    D1       -3.12646  -0.00112  -0.00389  -0.01276  -0.01662   3.14011
    D2       -0.03685   0.00064   0.00185   0.01192   0.01380  -0.02304
    D3        3.11797  -0.00032  -0.00138   0.00069  -0.00072   3.11725
    D4        3.11331   0.00078   0.00057   0.00889   0.00954   3.12285
    D5       -1.05396  -0.00048  -0.00091  -0.00133  -0.00217  -1.05613
    D6        1.05091  -0.00019   0.00040  -0.00251  -0.00226   1.04865
    D7        3.13390   0.00068   0.00467  -0.00853  -0.00358   3.13032
    D8        0.86854   0.00361   0.00826   0.05065   0.05929   0.92782
    D9       -1.08810  -0.00326  -0.00951  -0.01065  -0.02040  -1.10850
   D10        1.05285   0.00210   0.00864   0.00280   0.01171   1.06456
   D11       -1.21251   0.00503   0.01223   0.06197   0.07458  -1.13793
   D12        3.11404  -0.00184  -0.00554   0.00067  -0.00511   3.10893
   D13       -1.10056  -0.00084  -0.00040  -0.01321  -0.01374  -1.11431
   D14        2.91726   0.00209   0.00319   0.04597   0.04912   2.96638
   D15        0.96063  -0.00477  -0.01458  -0.01533  -0.03057   0.93006
   D16        0.91007  -0.00045   0.00465  -0.00364  -0.00023   0.90984
   D17       -1.40101   0.00288   0.00273   0.07683   0.07907  -1.32193
   D18        2.70388   0.00207  -0.00351   0.07722   0.07505   2.77893
   D19       -3.12454  -0.00220   0.00435  -0.05527  -0.05181   3.10684
   D20        0.84757   0.00113   0.00242   0.02520   0.02749   0.87507
   D21       -1.33073   0.00032  -0.00382   0.02559   0.02347  -1.30725
   D22       -1.16503  -0.00160   0.00414  -0.02265  -0.01974  -1.18477
   D23        2.80708   0.00173   0.00221   0.05781   0.05956   2.86665
   D24        0.62878   0.00092  -0.00403   0.05820   0.05554   0.68432
   D25       -1.66183   0.00816   0.00930   0.09001   0.10055  -1.56128
   D26        0.82089  -0.00105   0.01945  -0.03397  -0.01575   0.80514
   D27        2.70429  -0.00223  -0.00846   0.01810   0.00963   2.71392
   D28        0.05623   0.00038   0.00316  -0.00955  -0.00462   0.05161
   D29       -2.25428  -0.00135  -0.01099   0.05205   0.03888  -2.21541
   D30        2.24711   0.00442   0.02306  -0.00557   0.01790   2.26501
   D31        1.31765  -0.00806  -0.00172  -0.10504  -0.10634   1.21131
   D32       -3.02566   0.00452   0.01392  -0.03083  -0.01721  -3.04286
   D33       -1.09135   0.00044  -0.01428  -0.01661  -0.03102  -1.12237
   D34       -2.95387   0.00257   0.00971   0.02499   0.03425  -2.91962
   D35        0.23947   0.00083   0.00959  -0.02242  -0.01239   0.22708
   D36       -3.08271  -0.00175  -0.00072  -0.05183  -0.05293  -3.13564
   D37        0.07095   0.00029   0.00445  -0.01810  -0.01354   0.05741
   D38       -3.08218   0.00082   0.00455  -0.00357   0.00087  -3.08130
   D39        3.12764   0.00058   0.00009   0.01733   0.01751  -3.13804
   D40       -3.13507  -0.00143  -0.00248  -0.04618  -0.04863   3.09949
   D41       -0.00268  -0.00125  -0.00254  -0.04106  -0.04364  -0.04632
   D42        3.13114   0.00017   0.00002   0.00554   0.00558   3.13673
         Item               Value     Threshold  Converged?
 Maximum Force            0.038861     0.000450     NO 
 RMS     Force            0.011280     0.000300     NO 
 Maximum Displacement     0.783023     0.001800     NO 
 RMS     Displacement     0.169233     0.001200     NO 
 Predicted change in Energy=-1.734640D-02
 GradGradGradGradGradGradGradGradGradGradGradGradGradGradGradGradGradGrad

                          Input orientation:                          
 ---------------------------------------------------------------------
 Center     Atomic      Atomic             Coordinates (Angstroms)
 Number     Number       Type             X           Y           Z
 ---------------------------------------------------------------------
      1          8           0        3.631893    1.242215    0.796377
      2          7           0        3.538733    0.113044    1.098973
      3          8           0        4.316349   -0.568972    1.631031
      4          8           0        2.393251   -0.507754    0.809022
      5          6           0        1.385836    0.283345    0.182824
      6          6           0        0.269850   -0.736658   -0.015555
      7          6           0       -1.019056   -0.250597   -0.662357
      8          8           0       -0.767206    0.422567   -1.878858
      9          7           0       -0.549780    1.754273   -1.836877
     10          8           0       -0.586554    2.249293   -2.880156
     11          8           0       -0.351548    2.226737   -0.780595
     12          8           0       -1.938800    0.501003    0.025716
     13          7           0       -1.673593    0.875699    1.300384
     14          8           0       -0.627334    0.575245    1.720186
     15          8           0       -2.555186    1.447014    1.780273
     16          8           0       -1.734985   -1.348400   -1.202055
     17          7           0       -2.285815   -2.222380   -0.335978
     18          8           0       -2.886326   -3.058738   -0.862581
     19          8           0       -2.094569   -2.041147    0.808547
     20          1           0        1.106752    1.101502    0.818992
     21          1           0        1.760176    0.664104   -0.751810
     22          1           0        0.052156   -1.214290    0.924774
     23          1           0        0.615757   -1.507104   -0.690276
 ---------------------------------------------------------------------
                    Distance matrix (angstroms):
                    1          2          3          4          5
     1  O    0.000000
     2  N    1.172720   0.000000
     3  O    2.108442   1.163150   0.000000
     4  O    2.144011   1.334762   2.092308   0.000000
     5  C    2.518065   2.345911   3.378114   1.425779   0.000000
     6  C    3.984784   3.556650   4.371901   2.289357   1.524856
     7  C    5.097815   4.899792   5.816145   3.724906   2.604406
     8  O    5.213519   5.244463   6.256597   4.251904   2.984209
     9  N    4.968161   5.294222   6.411168   4.558397   3.160607
    10  O    5.685631   6.116782   7.234078   5.485488   4.139701
    11  O    4.395899   4.809861   5.951571   4.187869   2.779110
    12  O    5.672383   5.595155   6.545897   4.516395   3.335455
    13  N    5.341960   5.271674   6.170560   4.323726   3.310579
    14  O    4.409001   4.237411   5.075154   3.335722   2.549812
    15  O    6.268168   6.275308   7.162713   5.408463   4.408812
    16  O    6.285570   5.936552   6.727000   4.668345   3.784178
    17  N    6.950174   6.437286   7.084593   5.113182   4.475359
    18  O    7.983578   7.428949   8.018452   6.097189   5.523926
    19  O    6.600983   6.038126   6.629000   4.742554   4.231785
    20  H    2.529160   2.640070   3.708289   2.060312   1.073302
    21  H    2.496882   2.625325   3.705729   2.051885   1.076405
    22  H    4.343434   3.734753   4.370192   2.448125   2.138247
    23  H    4.343497   3.790789   4.467991   2.531023   2.135657
                    6          7          8          9         10
     6  C    0.000000
     7  C    1.521803   0.000000
     8  O    2.427176   1.412959   0.000000
[...]
 5653,0.03143103,-0.14194757,0.09854960,-0.00000989,0.00031807,0.000237
 07,0.00023979,-0.00057586,-0.00048271,0.00009780,0.00007815,0.00018037
 ,0.00074077,0.00052363,0.00082218,0.00010699,-0.00261713,-0.00159925,0
 .00181463,-0.00284685,-0.00568252,-0.01833463,0.01222215,0.01090704,0.
 00409304,0.00181566,-0.00311242,-0.00278016,-0.00558159,0.00105652,0.0
 0026621,0.00128889,-0.00043104,0.00133339,0.00173451,0.00010259,-0.054
 97763,-0.01742311,-0.07733454,-0.24195292,0.02476465,-0.31193137,0.329
 84391,-0.02239622,0.33980983,-0.00106030,-0.00031209,-0.00009402,0.004
 03885,0.00053538,0.00082614,-0.00158139,0.00040686,-0.00055336,-0.0030
 3347,0.00016413,-0.00008111,0.00202354,-0.00150835,-0.00087246,0.00015
 801,0.00056364,-0.00088013,0.00844054,-0.00412817,-0.00711936,-0.00087
 356,-0.00236839,0.00298299,-0.00025512,0.00469920,-0.00318291,0.000163
 14,-0.00157241,0.00199050,0.00060823,-0.00175001,0.00132031,-0.0069857
 3,0.03217700,0.04852967,-0.59505056,0.25440265,0.15001826,-0.15039039,
 0.07030184,-0.02803645,0.74222699,0.00062209,0.00032513,0.00009040,-0.
 00229964,-0.00055767,-0.00053174,0.00090929,-0.00016728,0.00033309,0.0
 0192054,0.00000803,0.00020675,-0.00111766,0.00066444,0.00022347,-0.000
 29869,0.00022431,-0.00039729,-0.00734856,0.01121326,0.00289124,0.00382
 321,0.00224136,-0.00545054,-0.00088988,-0.00666612,0.00071462,-0.00001
 096,0.00166191,-0.00091899,-0.00002351,0.00241366,0.00037246,0.0455423
 9,-0.01805841,-0.05611470,0.24572077,-0.26067096,-0.09038247,0.0696007
 8,0.02078894,0.01435128,-0.35530644,0.24887228,0.00039084,0.00026340,0
 .00016322,-0.00130420,-0.00041701,-0.00049858,0.00060999,-0.00010815,0
 .00027200,0.00122017,0.00036633,0.00052272,-0.00101744,-0.00071807,-0.
 00046976,-0.00041490,-0.00019007,-0.00183203,-0.01743926,0.00877921,0.
 00613028,0.00395148,0.00250555,-0.00522396,-0.00196101,-0.00651959,0.0
 0157432,0.00016413,0.00174156,-0.00100386,0.00084957,0.00202873,0.0003
 1837,0.08543279,-0.07245650,-0.06827011,0.12660221,-0.08031293,-0.1950
 2466,-0.02963290,0.01490788,0.05144781,-0.16965375,0.13590557,0.215256
 44,-0.00132194,-0.00039161,-0.00037548,0.00441364,0.00111213,0.0014280
 5,-0.00254257,0.00067949,-0.00102944,-0.00572045,-0.00225227,-0.001536
 26,0.00249096,0.00652205,-0.00525439,-0.02909036,-0.03697793,-0.014476
 34,-0.11488599,-0.04842497,-0.04048123,-0.00765286,-0.04021034,0.00770
 710,-0.00336496,0.01046084,-0.00061450,0.00046176,-0.00427997,0.003347
 02,0.00041786,-0.00289562,-0.00092616,0.01482772,0.01994435,0.01416660
 ,-0.00370244,0.00342997,-0.00079994,0.00276542,-0.00074600,0.00068786,
 0.00126275,-0.00111572,-0.00007510,0.24612571,-0.00067830,0.00022683,-
 0.00027290,0.00274495,-0.00019317,0.00094888,-0.00154817,0.00067451,-0
 .00064873,-0.00330852,-0.00044577,-0.00102902,0.00169219,0.00265903,-0
 .00065780,-0.00312324,-0.00697961,-0.00505638,-0.05707861,-0.11740467,
 -0.04914246,-0.03625302,-0.07273058,0.01224844,-0.00434332,0.01613440,
 0.00128229,0.00076138,-0.00682435,0.00499040,-0.00040914,-0.00394881,-
 0.00180231,0.00754004,-0.04815572,-0.06260998,0.00063385,-0.00494497,0
 .02976949,-0.00373304,0.00110262,-0.00724247,0.00548282,-0.00280727,-0
 .00857058,0.22293042,0.45283141,-0.00015748,-0.00029710,0.00008072,0.0
 0036497,0.00074400,-0.00018216,-0.00036533,-0.00006371,-0.00005884,-0.
 00159029,-0.00116584,-0.00001045,-0.00068342,0.00450336,-0.00110723,-0
 .01725296,-0.02314829,-0.00252192,-0.03253196,-0.03889077,-0.15324601,
 0.02577561,0.05712127,0.00422908,0.00334424,-0.01079103,-0.00761663,-0
 .00048039,0.00519484,-0.00205337,0.00034059,0.00326917,0.00413609,-0.0
 0093260,-0.03998931,-0.02636664,0.00069595,-0.00399941,0.00664681,-0.0
 0040468,0.00004584,-0.00067865,0.00162295,-0.00038976,-0.00227766,-0.0
 1751183,0.00690062,0.42764191,0.00133055,0.00033300,0.00036242,-0.0045
 4075,-0.00050025,-0.00139339,0.00213020,-0.00063442,0.00083817,0.00370
 407,0.00086824,0.00104997,-0.00293871,-0.00104752,-0.00039031,-0.00072
 217,0.00299211,-0.00183194,-0.02310069,-0.03471355,0.00458038,0.003161
 84,0.01113010,-0.00418360,0.00107170,-0.00967962,0.00253123,-0.0001522
 2,0.00374304,-0.00307346,0.00008134,0.00282241,0.00018168,-0.00295922,
 0.00905908,0.01025580,0.00549937,-0.00416991,-0.01026420,-0.00125851,0
 .00114975,0.00207870,-0.00421016,0.00224730,0.00331969,-0.10331402,-0.
 04521649,0.00860632,0.54633492,0.00162556,0.00001162,0.00049496,-0.005
 77996,-0.00007132,-0.00180821,0.00290609,-0.00108788,0.00114569,0.0052
 7130,0.00092786,0.00141955,-0.00349453,-0.00198166,-0.00000531,0.00191
 411,0.00747542,0.00051447,-0.02472745,-0.06557894,0.01305990,0.0006496
 9,0.00712383,-0.00480964,-0.00191741,-0.01099709,0.00570551,0.00027776
 ,0.00439630,-0.00426020,0.00095703,0.00347213,-0.00072763,-0.00222331,
 0.01252276,0.01487094,0.00261004,-0.00775006,-0.02228535,0.00174967,0.
 00087562,0.00588768,-0.00443736,0.00356243,0.00582552,-0.03646410,-0.1
 3696777,-0.00144972,0.32426241,0.81381932,0.00019056,0.00044546,-0.000
 17230,-0.00040118,-0.00037404,0.00048738,-0.00025348,0.00028367,-0.000
 37060,-0.00126663,-0.00030737,-0.00094540,-0.00003829,0.00216925,-0.00
 417482,-0.00009971,-0.00780033,0.00349411,-0.00365742,0.02816930,0.064
 84277,-0.00641685,-0.01597381,-0.00128731,-0.00018955,0.01007523,0.006
 39196,-0.00011138,-0.00354718,0.00024547,-0.00046445,-0.00323476,-0.00
 445080,0.01191766,0.00049487,-0.02256001,0.00049159,-0.01252585,0.0138
 0032,-0.00301585,0.00318724,-0.00574723,0.00214167,-0.00024798,-0.0044
 2441,0.00810611,0.00555687,-0.21111754,0.17874338,0.27203245,1.1431440
 7,-0.00050479,-0.00012013,-0.00012444,0.00177894,0.00019006,0.00049923
 ,-0.00082234,0.00024565,-0.00030065,-0.00145881,-0.00026585,-0.0003710
 3,0.00102411,0.00037515,0.00026081,0.00020995,-0.00104619,-0.00015313,
 0.00720896,0.00816166,0.00836082,-0.00206847,-0.00735875,0.00154877,-0
 .00047148,0.00507755,-0.00122439,0.00012133,-0.00200124,0.00176582,-0.
 00013471,-0.00116670,0.00008550,0.00067136,-0.00382865,-0.00333172,-0.
 00190340,0.00317055,0.00422309,0.00044065,-0.00077590,-0.00058691,0.00
 155951,-0.00101472,-0.00128029,-0.02700258,-0.07802403,-0.00563615,-0.
 28049461,-0.23464921,-0.13972193,0.27810077,-0.00079672,-0.00007436,-0
 .00021765,0.00281300,0.00011834,0.00080617,-0.00136313,0.00047742,-0.0
 0049857,-0.00240265,-0.00041440,-0.00058358,0.00166298,0.00080565,0.00
 046362,-0.00109460,-0.00321633,-0.00120756,0.00164940,0.01743907,0.011
 21588,-0.00214117,-0.00928419,0.00208346,-0.00014609,0.00691977,-0.002
 01143,0.00003908,-0.00272855,0.00249964,-0.00024488,-0.00162672,0.0002
 0673,0.00100947,-0.00349887,-0.00362202,-0.00224718,0.00418271,0.00556
 334,0.00039623,-0.00106773,-0.00094918,0.00186519,-0.00141767,-0.00170
 135,-0.07796989,-0.09089987,-0.00624230,-0.23371800,-0.47019846,-0.207
 91128,0.34183434,0.55436638,-0.00026719,-0.00013041,-0.00001409,0.0008
 8154,0.00013503,0.00010045,-0.00032043,0.00006264,-0.00004817,-0.00038
 791,-0.00004627,0.00006116,0.00050149,-0.00027911,0.00092365,-0.000282
 72,0.00084639,-0.00097228,0.00258401,-0.00103053,-0.00881388,0.0005658
 2,0.00078663,0.00109183,-0.00008865,-0.00058846,-0.00203475,0.00005814
 ,-0.00002288,0.00072395,0.00006306,0.00030190,0.00112072,-0.00227936,-
 0.00112038,0.00373699,-0.00141129,0.00402986,-0.00196794,0.00100469,-0
 .00122005,0.00122756,0.00025218,-0.00036398,0.00051833,0.01948800,0.03
 033600,0.03676699,-0.15543869,-0.23164518,-0.30492374,0.19684332,0.291
 85928,0.36878950,-0.00055408,-0.00021669,-0.00016769,0.00175557,0.0002
 4791,0.00053082,-0.00075178,0.00019075,-0.00028018,-0.00100364,-0.0002
 5913,-0.00029782,0.00098613,-0.00009615,0.00244218,-0.00468633,-0.0019
 6182,-0.00339364,-0.00067048,0.00496722,-0.00108692,0.00021269,-0.0018
 8267,0.00088991,-0.00028210,0.00208418,-0.00107461,0.00000666,-0.00067
 858,0.00071656,0.00016636,-0.00052185,0.00014602,0.00237524,-0.0006932
 2,-0.00103336,-0.00415391,0.00116531,0.00108198,0.00140341,-0.00070203
 ,0.00010578,0.00197678,-0.00073932,-0.00078095,0.02553853,-0.00745959,
 0.03404427,-0.13740918,-0.02788726,-0.04376166,0.02344675,-0.02969513,
 -0.06258229,0.09600964,-0.00040458,0.00007068,-0.00013565,0.00144595,-
 0.00013069,0.00046191,-0.00071659,0.00031093,-0.00029056,-0.00117918,-
 0.00009692,-0.00030743,0.00073288,0.00016687,0.00085131,-0.00203403,-0
 .00063760,-0.00050718,0.00539850,0.00460833,-0.00441838,-0.00018513,-0
 .00124591,0.00117796,0.00039344,0.00228088,-0.00236366,-0.00000437,-0.
 00086182,0.00118555,-0.00040320,-0.00066235,0.00077548,-0.00328974,-0.
 01523245,0.00400867,-0.00044238,0.00514530,0.00726304,-0.00034597,-0.0
 0055655,-0.00118672,0.00105310,-0.00106746,-0.00127941,-0.00789401,0.0
 1808588,0.04912647,-0.02858950,-0.16166418,-0.06988588,-0.02871569,0.0
 0062246,-0.09176182,0.06747483,0.15288758,-0.00023828,-0.00029037,0.00
 007217,0.00069354,0.00030418,-0.00014655,-0.00009594,-0.00009505,0.000
 12018,0.00020261,0.00004533,0.00040628,0.00033808,-0.00092694,0.001824
 38,-0.00050666,0.00306397,-0.00180672,-0.00418963,-0.01966558,-0.02329
 394,0.00222685,0.00628521,0.00118694,-0.00019453,-0.00523704,-0.002873
 09,0.00013221,0.00133393,0.00031021,0.00040695,0.00206806,0.00271848,-
 0.00503625,0.00218250,0.01022093,-0.00143685,0.00616060,-0.00775806,0.
 00196724,-0.00237667,0.00330420,-0.00083612,0.00005085,0.00223836,0.03
 098602,0.04492876,-0.07431566,-0.03537164,-0.05362140,-0.66851525,-0.0
 6103212,-0.09018928,-0.09712201,0.07084000,0.10567941,0.85130370,-0.00
 162178,-0.00341111,0.00012662,0.00492636,0.00807686,0.00255290,-0.0009
 2409,-0.00123128,-0.00100018,-0.01968321,0.02927543,0.01257245,-0.0703
 1076,0.03630265,0.03994233,0.00994867,-0.02079590,-0.02097192,0.002342
 06,-0.00146481,-0.00038596,-0.00036901,0.00063157,-0.00032252,-0.00033
 624,-0.00078447,-0.00075565,0.00013110,0.00011493,0.00027169,-0.000952
 10,0.00090698,-0.00050996,-0.00094186,0.00107325,0.00120319,-0.0042167
 7,0.00015472,-0.00277121,-0.00057945,-0.00016652,0.00259751,0.00141473
 ,-0.00057716,0.00024493,-0.00110631,0.00032010,0.00011741,0.00056691,0
 .00027562,-0.00037749,-0.00004914,-0.00008387,0.00004578,-0.00013697,0
 .00007855,0.00016207,0.08503336,-0.00127853,0.00245274,0.00020632,-0.0
 0237462,-0.00373510,-0.00069912,0.00027117,0.00099131,0.00011167,0.014
 83266,-0.02013692,-0.00751402,0.04077841,-0.22239064,-0.15238644,0.003
 06852,-0.01218522,-0.01380044,0.00065874,-0.00108618,-0.00036051,0.000
 16079,0.00003512,-0.00004196,-0.00022391,-0.00001233,-0.00011719,-0.00
 000983,0.00003363,0.00000923,0.00116712,-0.00079256,0.00163209,-0.0005
 1602,0.00053652,0.00058324,-0.00212834,0.00063059,-0.00203021,0.003096
 21,0.00048453,0.00045797,0.00128682,-0.00075310,0.00018100,-0.00074104
 ,0.00011953,-0.00001230,0.00022315,0.00007598,-0.00033557,0.00001051,-
 0.00000064,0.00007076,-0.00002340,0.00007008,0.00016161,-0.05255632,0.
 24270585,-0.00221999,0.00049655,-0.00004092,0.00282130,-0.00075034,0.0
 0204080,-0.00078951,0.00061689,-0.00128710,-0.01063291,0.01964234,0.01
 560378,0.04442840,-0.15987318,-0.21949237,0.00034109,-0.00100620,-0.00
 057846,0.00013435,-0.00077776,0.00045354,-0.00035065,0.00106877,-0.000
 33336,-0.00027585,-0.00233484,-0.00303541,-0.00004376,0.00000371,0.001
 40981,0.00090224,0.00104617,0.00170143,-0.00019735,0.00018502,-0.00034
 110,0.00013184,-0.00007584,0.00011256,0.00303238,0.00066354,-0.0009572
 5,-0.00005325,-0.00011243,0.00003797,-0.00006740,0.00009911,-0.0000938
 4,0.00010521,0.00008682,0.00012540,-0.00002734,-0.00004182,-0.00004183
 ,-0.00007523,-0.00002668,-0.00007089,-0.04132938,0.16324462,0.22111530
 ,-0.00268862,-0.00226209,-0.00094680,0.00682834,0.00446577,-0.00126305
 ,-0.00189997,-0.00000286,0.00063384,-0.00233433,0.02135716,-0.03673173
 ,-0.09457316,-0.04388128,0.09517703,-0.00673751,-0.00970895,0.02598493
 ,0.00017382,-0.00146818,0.00298120,0.00068754,0.00102942,-0.00118580,-
 0.00251967,0.00052315,-0.00239240,-0.00005024,0.00004185,0.00044113,-0
 .00000339,0.00085658,0.00053232,0.00001556,0.00006953,-0.00066631,0.00
 121575,-0.00041819,0.00079031,-0.00093110,0.00026354,-0.00027019,-0.00
 052320,0.00023255,-0.00003307,0.00013075,0.00035355,-0.00041403,0.0003
 7659,0.00028808,0.00137372,-0.00012507,-0.00025207,-0.00036379,-0.0006
 8992,-0.00023690,-0.00071223,0.00082744,-0.00383646,0.00507709,0.10534
 403,-0.00017856,0.00147393,-0.00129327,-0.00317681,-0.00201790,0.00019
 326,0.00066647,0.00041593,-0.00030571,0.00379700,-0.01535320,0.0255924
 2,-0.03662622,-0.10669699,0.09507102,-0.00796356,-0.00747018,0.0188318
 6,0.00010122,-0.00073425,0.00118385,0.00046349,-0.00035194,-0.00040094
 ,0.00103588,0.00147738,0.00049509,-0.00009018,-0.00012592,-0.00011579,
 0.00106378,-0.00135823,-0.00015295,-0.00012205,0.00027025,0.00022130,-
 0.00090675,0.00007945,-0.00097592,0.00115288,0.00024407,0.00037481,0.0
 0048385,-0.00026844,0.00008786,0.00012014,0.00022830,-0.00021604,0.000
 18819,0.00004286,0.00078018,-0.00004429,-0.00011013,-0.00018935,-0.000
 42532,-0.00010208,-0.00037507,0.00709944,0.01395031,-0.02263675,0.0354
 1265,0.11786243,0.00022510,-0.00338819,0.00200186,0.00417180,0.0072360
 2,-0.00140133,-0.00061971,-0.00156700,0.00017960,-0.00927700,0.0101332
 9,-0.00973251,0.08744597,0.09543009,-0.29597062,-0.00178121,-0.0046921
 8,0.01013550,0.00086831,0.00086801,-0.00049384,-0.00063805,-0.00029588
 ,0.00016610,-0.00026623,0.00137142,0.00307994,0.00018319,0.00010429,-0
 .00110420,-0.00265281,0.00018091,-0.00157528,-0.00013319,0.00014685,0.
 00055042,-0.00114776,0.00016020,-0.00123765,0.00128612,0.00016248,0.00
 042485,0.00054638,-0.00028324,0.00012853,0.00037339,0.00004161,0.00020
 859,0.00002622,-0.00001278,0.00022859,-0.00001321,-0.00003032,-0.00004
 909,-0.00022221,-0.00006175,-0.00008986,0.00834829,0.01071345,-0.01794
 214,-0.08517495,-0.11540881,0.31139756,-0.00019030,0.00094529,-0.00049
 849,-0.00055300,-0.00145046,0.00005393,0.00013589,0.00031473,-0.000027
 81,0.00164021,0.00020294,0.00071535,-0.00651143,-0.01276288,0.02588470
 ,-0.07606624,-0.02951045,0.05931725,0.01348668,0.01471711,-0.02823091,
 -0.00509265,0.00636494,-0.00717279,-0.00174798,-0.00426931,-0.00137030
 ,0.00049950,0.00135280,-0.00045767,0.00039097,0.00095256,0.00100950,0.
 00095617,-0.00117443,0.00209688,-0.00216500,0.00175357,-0.00095671,-0.
 00032444,0.00174002,0.00167745,0.00031140,-0.00017893,0.00013339,0.000
 12301,-0.00211232,0.00279228,-0.00118600,-0.00067571,-0.00514215,0.000
 41375,0.00086724,0.00143077,-0.00366111,-0.00172213,0.00250909,0.00102
 253,0.00075682,-0.00041571,-0.00377293,-0.00281830,-0.00206965,0.08428
 878,-0.00017481,0.00039801,-0.00030209,-0.00026423,-0.00081249,-0.0001
 8223,0.00011633,0.00008209,0.00008278,0.00238911,0.00138396,-0.0002368
 7,-0.00665601,-0.01159048,0.02481189,-0.02706602,-0.11779926,0.1189051
 2,-0.00267707,-0.00759174,0.01206622,0.00227687,-0.00034161,0.00265492
 ,-0.00035675,0.00103505,-0.00020282,-0.00006510,-0.00022430,0.00007234
 ,0.00028563,-0.00029944,-0.00008556,-0.00029481,0.00005845,-0.00192487
 ,0.00494601,-0.00133076,0.00271741,-0.00128626,-0.00066548,-0.00253570
 ,-0.00194280,0.00061616,-0.00008467,0.00019088,-0.00049388,-0.00002341
 ,-0.00079787,0.00053120,-0.00045665,0.00004160,0.00006276,0.00003618,-
 0.00302403,-0.00173971,0.00026896,0.00105323,0.00056252,0.00015136,-0.
 00360514,-0.00213690,-0.00148649,0.03267058,0.12498966,-0.00042083,-0.
 00020908,-0.00030063,0.00066740,-0.00028427,0.00064596,-0.00015051,0.0
 0010404,-0.00013050,-0.00020387,-0.00034142,0.00032757,-0.00064092,-0.
 00308195,0.00881621,0.05388585,0.12396912,-0.30620280,0.00411224,0.005
 00779,-0.01073241,-0.00133199,0.00163238,-0.00052826,-0.00064942,-0.00
 133174,-0.00050619,0.00011108,0.00033515,-0.00003884,0.00020484,0.0002
 6152,0.00036639,-0.00031169,-0.00063132,0.00015789,-0.00027615,-0.0000
 4717,0.00008014,0.00250125,-0.00458750,-0.00194522,0.00016065,0.000153
 33,-0.00001983,-0.00103433,-0.00132723,0.00077760,-0.00126236,-0.00045
 520,-0.00407489,0.00013794,0.00047125,0.00084327,0.00387621,0.00130449
 ,0.00224678,0.00049530,0.00003356,0.00045637,-0.00217526,-0.00108067,0
 .00031156,-0.06112620,-0.12949030,0.32636985,-0.00056299,0.00073051,-0
 .00001457,0.00003764,-0.00134154,0.00020562,0.00002261,0.00029122,-0.0
 0004920,0.00136513,-0.00023864,0.00006437,0.00941925,-0.02318519,-0.02
 058542,-0.08890078,0.06436232,0.05738298,-0.01667620,0.02599800,0.0231
 2801,0.00078797,-0.00181045,-0.00039018,0.00032145,0.00013500,0.000416
 36,-0.00011320,-0.00011373,0.00006923,0.00016829,-0.00007579,-0.000274
 45,-0.00696133,0.00262153,-0.00266526,0.00102912,-0.00177112,-0.003017
 57,0.00029278,0.00084834,0.00126495,-0.00022061,0.00030226,0.00067366,
 0.00114636,0.00082851,0.00025655,-0.00197128,-0.00053106,0.00195333,0.
 00005932,0.00001847,-0.00029649,0.00012175,-0.00041387,-0.00081441,-0.
 00498547,-0.00262244,-0.00049556,0.00124929,0.00076705,0.00052120,-0.0
 0199781,0.00424066,0.00343077,0.10636868,-0.00016585,0.00061957,-0.000
 04259,-0.00056428,-0.00075014,0.00033072,0.00010099,0.00011014,-0.0000
 6645,0.00184132,0.00178879,0.00132737,0.00717952,-0.02140566,-0.019361
 72,0.06688896,-0.20353250,-0.12692598,0.00772054,-0.01284120,-0.010552
 59,-0.00073852,0.00181604,0.00032072,-0.00057835,-0.00154184,-0.001506
 65,0.00009736,0.00024610,0.00034816,0.00029810,0.00028988,0.00098303,0
 .00182401,-0.00002190,0.00103133,0.00000726,0.00036423,0.00138339,-0.0
 0035913,0.00081272,-0.00046262,-0.00009646,-0.00015754,-0.00023427,-0.
 00502682,0.00073393,-0.00022657,0.00004835,0.00146001,-0.00059382,-0.0
 0009571,-0.00045663,-0.00006623,0.00013600,-0.00025126,0.00024401,-0.0
 0429188,-0.00155601,0.00033092,0.00077830,0.00068125,0.00067802,-0.005
 96368,0.01530622,0.00959522,-0.06904004,0.21828580,0.00009499,0.000551
 40,-0.00014662,-0.00044438,-0.00035832,0.00013826,-0.00007522,0.000173
 56,-0.00006738,0.00008286,-0.00018799,-0.00003462,0.00103519,-0.001560
 50,-0.00107338,0.06282055,-0.13059761,-0.18245298,-0.00707330,0.012219
 11,0.00876273,0.00027095,-0.00060864,0.00058878,0.00012467,0.00029772,
 0.00072764,-0.00006196,-0.00009617,-0.00007762,-0.00002033,0.00007433,
 -0.00028948,-0.00484283,0.00173582,-0.00003121,-0.00223051,-0.00022891
 ,-0.00338632,0.00259890,-0.00195907,0.00038218,0.00097121,-0.00009994,
 0.00043650,-0.00210774,0.00125739,0.00115883,0.00053042,0.00003714,0.0
 0000423,0.00007799,0.00003697,0.00008337,0.00008283,0.00039082,0.00003
 942,-0.00025623,-0.00010777,0.00115768,-0.00066195,0.00031959,0.000783
 44,0.00984779,-0.02475553,-0.01692004,-0.06076392,0.14346659,0.1902165
 9||0.00000560,0.00000144,0.00000496,0.00000078,0.00000140,-0.00000815,
 -0.00001131,0.00000421,-0.00000116,-0.00000194,-0.00000605,0.00000119,
 -0.00000189,-0.00000377,0.00002036,0.00000207,0.00002268,-0.00000961,0
 .00000619,0.00001094,-0.00000466,-0.00001158,0.00001885,0.00000800,0.0
 0000375,-0.00001087,0.00001583,0.00000282,-0.00000023,-0.00000867,-0.0
 0000902,-0.00000917,-0.00000925,0.00001445,0.00000068,0.00000140,-0.00
 001419,-0.00001705,-0.00000307,0.00000988,0.00000033,-0.00000208,0.000
 00769,0.00000282,-0.00000702,-0.00000212,-0.00000771,0.00000321,0.0000
 0170,0.00001143,0.00002501,0.00000045,-0.00000151,-0.00000484,-0.00000
 113,-0.00000798,-0.00001798,0.00000190,-0.00000066,-0.00000617,0.00000
 132,-0.00000334,-0.00000332,-0.00000048,-0.00000463,0.00000569,-0.0000
 0492,-0.00000181,0.00000033|||@
 The archive entry for this job was punched.


 TIME IS NATURE'S WAY OF MAKING SURE EVERYTHING
 DOESN'T HAPPEN AT ONCE.
                     - WOODY ALLEN
 Job cpu time:       0 days  0 hours  1 minutes 27.0 seconds.
 Elapsed time:       0 days  0 hours  1 minutes 25.3 seconds.
 File lengths (MBytes):  RWF=    251 Int=      0 D2E=      0 Chk=      8 Scr=      1
 Normal termination of Gaussian 16 at Tue Jun 11 18:32:54 2024.
