 Entering Link 1 = C:\G16W\l1.exe PID=     25668.
  
 Copyright (c) 1988-2019, Gaussian, Inc.  All Rights Reserved.
  
 This is part of the Gaussian(R) 16 program.  It is based on
 the Gaussian(R) 09 system (copyright 2009, Gaussian, Inc.),
 the Gaussian(R) 03 system (copyright 2003, Gaussian, Inc.),
 the Gaussian(R) 98 system (copyright 1998, Gaussian, Inc.),
 the Gaussian(R) 94 system (copyright 1995, Gaussian, Inc.),
 the Gaussian 92(TM) system (copyright 1992, Gaussian, Inc.),
 the Gaussian 90(TM) system (copyright 1990, Gaussian, Inc.),
 the Gaussian 88(TM) system (copyright 1988, Gaussian, Inc.),
 the Gaussian 86(TM) system (copyright 1986, Carnegie Mellon
 University), and the Gaussian 82(TM) system (copyright 1983,
 Carnegie Mellon University). Gaussian is a federally registered
 trademark of Gaussian, Inc.
  
 This software contains proprietary and confidential information,
 including trade secrets, belonging to Gaussian, Inc.
  
 This software is provided under written license and may be
 used, copied, transmitted, or stored only in accord with that
 written license.
  
 The following legend is applicable only to US Government
 contracts under FAR:
  
                    RESTRICTED RIGHTS LEGEND
  
 Use, reproduction and disclosure by the US Government is
 subject to restrictions as set forth in subparagraphs (a)
 and (c) of the Commercial Computer Software - Restricted
 Rights clause in FAR 52.227-19.
  
 Gaussian, Inc.
 340 Quinnipiac St., Bldg. 40, Wallingford CT 06492
  
  
 ---------------------------------------------------------------
 Warning -- This program may not be used in any manner that
 competes with the business of Gaussian, Inc. or will provide
 assistance to any competitor of Gaussian, Inc.  The licensee
 of this program is prohibited from giving any competitor of
 Gaussian, Inc. access to this program.  By using this program,
 the user acknowledges that Gaussian, Inc. is engaged in the
 business of creating and licensing software in the field of
 computational chemistry and represents and warrants to the
 licensee that it is not a competitor of Gaussian, Inc. and that
 it will not use this program in any manner prohibited above.
 ---------------------------------------------------------------
  

 Cite this work as:
 Gaussian 16, Revision C.01,
 M. J. Frisch, G. W. Trucks, H. B. Schlegel, G. E. Scuseria, 
 M. A. Robb, J. R. Cheeseman, G. Scalmani, V. Barone, 
 G. A. Petersson, H. Nakatsuji, X. Li, M. Caricato, A. V. Marenich, 
 J. Bloino, B. G. Janesko, R. Gomperts, B. Mennucci, H. P. Hratchian, 
 J. V. Ortiz, A. F. Izmaylov, J. L. Sonnenberg, D. Williams-Young, 
 F. Ding, F. Lipparini, F. Egidi, J. Goings, B. Peng, A. Petrone, 
 T. Henderson, D. Ranasinghe, V. G. Zakrzewski, J. Gao, N. Rega, 
 G. Zheng, W. Liang, M. Hada, M. Ehara, K. Toyota, R. Fukuda, 
 J. Hasegawa, M. Ishida, T. Nakajima, Y. Honda, O. Kitao, H. Nakai, 
 T. Vreven, K. Throssell, J. A. Montgomery, Jr., J. E. Peralta, 
 F. Ogliaro, M. J. Bearpark, J. J. Heyd, E. N. Brothers, K. N. Kudin, 
 V. N. Staroverov, T. A. Keith, R. Kobayashi, J. Normand, 
 K. Raghavachari, A. P. Rendell, J. C. Burant, S. S. Iyengar, 
 J. Tomasi, M. Cossi, J. M. Millam, M. Klene, C. Adamo, R. Cammi, 
 J. W. Ochterski, R. L. Martin, K. Morokuma, O. Farkas, 
 J. B. Foresman, and D. J. Fox, Gaussian, Inc., Wallingford CT, 2019.
 
 ******************************************
 Gaussian 16:  EM64W-G16RevC.01 30-May-2019
                11-Jun-2024 
 ******************************************
 %nprocshared=24
 Will use up to   24 processors via shared memory.
 %mem=120GB
 ----------------------
 # HF/6-31G(d) Opt Freq
 ----------------------
 1/18=20,19=15,38=1/1,3;
 2/9=110,12=2,17=6,18=5,40=1/2;
 3/5=1,6=6,7=1,11=9,25=1,30=1,71=1/1,2,3;
 4//1;
 5/5=2,38=5/2;
 6/7=2,8=2,9=2,10=2,28=1/1;
 7//1,2,3,16;
 1/18=20,19=15/3(2);
 2/9=110/2;
 99//99;
 2/9=110/2;
 3/5=1,6=6,7=1,11=9,25=1,30=1,71=1/1,2,3;
 4/5=5,16=3,69=1/1;
 5/5=2,38=5/2;
 7//1,2,3,16;
 1/18=20,19=15/3(-5);
 2/9=110/2;
 6/7=2,8=2,9=2,10=2,19=2,28=1/1;
 99/9=1/99;
 ----------------------------------------------------------------------
 O=[N+1]([O-1])OCCC(O[N+1]([O-1])=O)(O[N+1]([O-1])=O)O[N+1]([O-1])=C=O 
 geometry optimization
 ----------------------------------------------------------------------
 Symbolic Z-matrix:
 Charge =  0 Multiplicity = 1
 O                     3.58898   1.03237  -1.88021 
 N                     3.85402  -0.0943   -1.45862 
 O                     4.89873  -0.73752  -1.51657 
 O                     2.8136   -0.79309  -0.79524 
 C                     1.60444  -0.03817  -0.72703 
 C                     0.56883  -0.88432   0.01804 
 C                    -0.80933  -0.17355   0.19931 
 O                    -1.77549  -1.06696   0.76224 
 N                    -1.56201  -1.45706   2.09238 
 O                    -2.34158  -2.33001   2.46142 
 O                    -0.66631  -0.8913    2.7158 
 O                    -1.22277   0.33939  -1.08302 
 N                    -1.73927  -0.61416  -1.97938 
 O                    -2.18066  -0.10046  -3.00291 
 O                    -1.62378  -1.79959  -1.68025 
 O                    -0.51246   0.99208   1.00209 
 N                    -1.67646   1.80587   1.22678 
 O                    -2.83504   1.38065   0.92182 
 C                    -1.51339   3.14316   1.83509 
 O                    -1.36011   4.20865   2.31488 
 H                     1.24868   0.17814  -1.74092 
 H                     1.77951   0.89697  -0.18218 
 H                     1.00185  -1.14949   0.98988 
 H                     0.46001  -1.84731  -0.4934 
 

 GradGradGradGradGradGradGradGradGradGradGradGradGradGradGradGradGradGrad
 Berny optimization.
 Initialization pass.
                           ----------------------------
                           !    Initial Parameters    !
                           ! (Angstroms and Degrees)  !
 --------------------------                            --------------------------
 ! Name  Definition              Value          Derivative Info.                !
 --------------------------------------------------------------------------------
 ! R1    R(1,2)                  1.2318         estimate D2E/DX2                !
 ! R2    R(2,3)                  1.2282         estimate D2E/DX2                !
 ! R3    R(2,4)                  1.418          estimate D2E/DX2                !
 ! R4    R(4,5)                  1.4271         estimate D2E/DX2                !
 ! R5    R(5,6)                  1.5309         estimate D2E/DX2                !
 ! R6    R(5,21)                 1.096          estimate D2E/DX2                !
 ! R7    R(5,22)                 1.0964         estimate D2E/DX2                !
 ! R8    R(6,7)                  1.5612         estimate D2E/DX2                !
 ! R9    R(6,23)                 1.0965         estimate D2E/DX2                !
 ! R10   R(6,24)                 1.0958         estimate D2E/DX2                !
 ! R11   R(7,8)                  1.4313         estimate D2E/DX2                !
 ! R12   R(7,12)                 1.4417         estimate D2E/DX2                !
 ! R13   R(7,16)                 1.4461         estimate D2E/DX2                !
 ! R14   R(8,9)                  1.4025         estimate D2E/DX2                !
 ! R15   R(9,10)                 1.2272         estimate D2E/DX2                !
 ! R16   R(9,11)                 1.2292         estimate D2E/DX2                !
 ! R17   R(12,13)                1.4069         estimate D2E/DX2                !
 ! R18   R(13,14)                1.2273         estimate D2E/DX2                !
 ! R19   R(13,15)                1.228          estimate D2E/DX2                !
 ! R20   R(16,17)                1.4379         estimate D2E/DX2                !
 ! R21   R(17,18)                1.2713         estimate D2E/DX2                !
 ! R22   R(17,19)                1.4782         estimate D2E/DX2                !
 ! R23   R(19,20)                1.1785         estimate D2E/DX2                !
 ! A1    A(1,2,3)              130.2307         estimate D2E/DX2                !
 ! A2    A(1,2,4)              116.9339         estimate D2E/DX2                !
 ! A3    A(3,2,4)              112.8354         estimate D2E/DX2                !
 ! A4    A(2,4,5)              112.5407         estimate D2E/DX2                !
 ! A5    A(4,5,6)              107.7011         estimate D2E/DX2                !
 ! A6    A(4,5,21)             109.5842         estimate D2E/DX2                !
 ! A7    A(4,5,22)             109.8559         estimate D2E/DX2                !
 ! A8    A(6,5,21)             109.8597         estimate D2E/DX2                !
 ! A9    A(6,5,22)             109.7309         estimate D2E/DX2                !
 ! A10   A(21,5,22)            110.0725         estimate D2E/DX2                !
 ! A11   A(5,6,7)              113.7052         estimate D2E/DX2                !
 ! A12   A(5,6,23)             107.3301         estimate D2E/DX2                !
 ! A13   A(5,6,24)             109.0113         estimate D2E/DX2                !
 ! A14   A(7,6,23)             110.8428         estimate D2E/DX2                !
 ! A15   A(7,6,24)             111.5076         estimate D2E/DX2                !
 ! A16   A(23,6,24)            103.9085         estimate D2E/DX2                !
 ! A17   A(6,7,8)              110.9385         estimate D2E/DX2                !
 ! A18   A(6,7,12)             108.1718         estimate D2E/DX2                !
 ! A19   A(6,7,16)             104.4895         estimate D2E/DX2                !
 ! A20   A(8,7,12)             112.231          estimate D2E/DX2                !
 ! A21   A(8,7,16)             115.0474         estimate D2E/DX2                !
 ! A22   A(12,7,16)            105.4183         estimate D2E/DX2                !
 ! A23   A(7,8,9)              116.3522         estimate D2E/DX2                !
 ! A24   A(8,9,10)             112.7287         estimate D2E/DX2                !
 ! A25   A(8,9,11)             117.6383         estimate D2E/DX2                !
 ! A26   A(10,9,11)            129.6261         estimate D2E/DX2                !
 ! A27   A(7,12,13)            115.52           estimate D2E/DX2                !
 ! A28   A(12,13,14)           112.3132         estimate D2E/DX2                !
 ! A29   A(12,13,15)           117.6794         estimate D2E/DX2                !
 ! A30   A(14,13,15)           129.8654         estimate D2E/DX2                !
 ! A31   A(7,16,17)            112.1318         estimate D2E/DX2                !
 ! A32   A(16,17,18)           120.7273         estimate D2E/DX2                !
 ! A33   A(16,17,19)           119.1445         estimate D2E/DX2                !
 ! A34   A(18,17,19)           120.1239         estimate D2E/DX2                !
 ! A35   L(17,19,20,1,-1)      178.8741         estimate D2E/DX2                !
 ! A36   L(17,19,20,1,-2)      180.3073         estimate D2E/DX2                !
 ! D1    D(1,2,3,4)           -179.9695         estimate D2E/DX2                !
 ! D2    D(1,2,4,5)             -0.249          estimate D2E/DX2                !
 ! D3    D(3,2,4,5)            179.7771         estimate D2E/DX2                !
 ! D4    D(2,4,5,6)           -179.41           estimate D2E/DX2                !
 ! D5    D(2,4,5,21)            61.1148         estimate D2E/DX2                !
 ! D6    D(2,4,5,22)           -59.9353         estimate D2E/DX2                !
 ! D7    D(4,5,6,7)            178.7947         estimate D2E/DX2                !
 ! D8    D(4,5,6,23)            55.8327         estimate D2E/DX2                !
 ! D9    D(4,5,6,24)           -56.1201         estimate D2E/DX2                !
 ! D10   D(21,5,6,7)           -61.9054         estimate D2E/DX2                !
 ! D11   D(21,5,6,23)          175.1326         estimate D2E/DX2                !
 ! D12   D(21,5,6,24)           63.1797         estimate D2E/DX2                !
 ! D13   D(22,5,6,7)            59.2406         estimate D2E/DX2                !
 ! D14   D(22,5,6,23)          -63.7214         estimate D2E/DX2                !
 ! D15   D(22,5,6,24)         -175.6743         estimate D2E/DX2                !
 ! D16   D(5,6,7,8)            173.3517         estimate D2E/DX2                !
 ! D17   D(5,6,7,12)            49.8506         estimate D2E/DX2                !
 ! D18   D(5,6,7,16)           -62.1018         estimate D2E/DX2                !
 ! D19   D(23,6,7,8)           -65.6327         estimate D2E/DX2                !
 ! D20   D(23,6,7,12)          170.8662         estimate D2E/DX2                !
 ! D21   D(23,6,7,16)           58.9138         estimate D2E/DX2                !
 ! D22   D(24,6,7,8)            49.6117         estimate D2E/DX2                !
 ! D23   D(24,6,7,12)          -73.8893         estimate D2E/DX2                !
 ! D24   D(24,6,7,16)          174.1582         estimate D2E/DX2                !
 ! D25   D(6,7,8,9)             68.295          estimate D2E/DX2                !
 ! D26   D(12,7,8,9)          -170.5654         estimate D2E/DX2                !
 ! D27   D(16,7,8,9)           -50.0326         estimate D2E/DX2                !
 ! D28   D(6,7,12,13)           77.0038         estimate D2E/DX2                !
 ! D29   D(8,7,12,13)          -45.7132         estimate D2E/DX2                !
 ! D30   D(16,7,12,13)        -171.6691         estimate D2E/DX2                !
 ! D31   D(6,7,16,17)          177.686          estimate D2E/DX2                !
 ! D32   D(8,7,16,17)          -60.4311         estimate D2E/DX2                !
 ! D33   D(12,7,16,17)          63.7693         estimate D2E/DX2                !
 ! D34   D(7,8,9,10)          -172.6046         estimate D2E/DX2                !
 ! D35   D(7,8,9,11)             8.2538         estimate D2E/DX2                !
 ! D36   D(8,9,10,11)         -179.0127         estimate D2E/DX2                !
 ! D37   D(7,12,13,14)         173.9835         estimate D2E/DX2                !
 ! D38   D(7,12,13,15)          -9.9211         estimate D2E/DX2                !
 ! D39   D(12,13,14,15)        175.4939         estimate D2E/DX2                !
 ! D40   D(7,16,17,18)          10.7257         estimate D2E/DX2                !
 ! D41   D(7,16,17,19)        -170.035          estimate D2E/DX2                !
 ! D42   D(16,17,18,19)        179.2319         estimate D2E/DX2                !
 --------------------------------------------------------------------------------
 Trust Radius=3.00D-01 FncErr=1.00D-07 GrdErr=1.00D-07 EigMax=2.50D+02 EigMin=1.00D-04
 Number of steps in this run=    111 maximum allowed number of steps=    144.
 GradGradGradGradGradGradGradGradGradGradGradGradGradGradGradGradGradGrad

                          Input orientation:                          
 ---------------------------------------------------------------------
 Center     Atomic      Atomic             Coordinates (Angstroms)
 Number     Number       Type             X           Y           Z
 ---------------------------------------------------------------------
      1          8           0        3.588983    1.032373   -1.880206
      2          7           0        3.854019   -0.094304   -1.458625
      3          8           0        4.898731   -0.737518   -1.516568
      4          8           0        2.813597   -0.793087   -0.795245
      5          6           0        1.604441   -0.038168   -0.727028
      6          6           0        0.568825   -0.884321    0.018042
      7          6           0       -0.809326   -0.173547    0.199305
      8          8           0       -1.775489   -1.066962    0.762244
      9          7           0       -1.562011   -1.457059    2.092383
     10          8           0       -2.341580   -2.330007    2.461421
     11          8           0       -0.666314   -0.891304    2.715799
     12          8           0       -1.222769    0.339388   -1.083019
     13          7           0       -1.739270   -0.614158   -1.979379
     14          8           0       -2.180665   -0.100465   -3.002907
     15          8           0       -1.623780   -1.799588   -1.680255
     16          8           0       -0.512457    0.992076    1.002092
     17          7           0       -1.676457    1.805874    1.226776
     18          8           0       -2.835038    1.380646    0.921815
     19          6           0       -1.513389    3.143159    1.835089
     20          8           0       -1.360106    4.208654    2.314884
     21          1           0        1.248684    0.178141   -1.740916
     22          1           0        1.779515    0.896968   -0.182180
     23          1           0        1.001847   -1.149487    0.989882
     24          1           0        0.460007   -1.847307   -0.493404
 ---------------------------------------------------------------------
                    Distance matrix (angstroms):
                    1          2          3          4          5
     1  O    0.000000
     2  N    1.231818   0.000000
     3  O    2.231633   1.228213   0.000000
     4  O    2.260678   1.418044   2.207075   0.000000
     5  C    2.532644   2.366218   3.459019   1.427100   0.000000
     6  C    4.049496   3.687434   4.596158   2.389301   1.530884
     7  C    5.012358   4.949929   5.987003   3.807694   2.588955
     8  O    6.337768   6.129411   7.060222   4.853915   3.834093
     9  N    6.965018   6.618168   7.435285   5.284430   4.470878
    10  O    8.082505   7.664892   8.413235   6.288389   5.566849
    11  O    6.552201   6.204388   6.993305   4.944376   4.211558
    12  O    4.926326   5.109104   6.230606   4.202090   2.874438
    13  N    5.577740   5.641482   6.655259   4.707737   3.616705
    14  O    5.986035   6.229146   7.261742   5.504194   4.417073
    15  O    5.935729   5.741376   6.610442   4.635364   3.799033
    16  O    5.013090   5.128494   6.214185   4.180892   2.921046
    17  N    6.162507   6.434921   7.564911   5.568101   4.240534
    18  O    7.017169   7.251583   8.381141   6.291303   4.943753
    19  C    6.655301   7.080874   8.210271   6.413696   5.138691
    20  O    7.223643   7.742216   8.849728   7.218733   6.006434
    21  H    2.495218   2.634708   3.769829   2.070394   1.096049
    22  H    2.485116   2.629734   3.765853   2.073996   1.096353
    23  H    4.437475   3.904290   4.651636   2.568294   2.132118
    24  H    4.472836   3.940049   4.688365   2.596512   2.153437
                    6          7          8          9         10
     6  C    0.000000
     7  C    1.561204   0.000000
     8  O    2.466374   1.431280   0.000000
     9  N    3.028429   2.407837   1.402505   0.000000
    10  O    4.065779   3.480702   2.191562   1.227173   0.000000
    11  O    2.967071   2.620757   2.253332   1.229227   2.222856
    12  O    2.433025   1.441663   2.385019   3.664080   4.576075
    13  N    3.064308   2.409481   2.779000   4.161869   4.798711
    14  O    4.159359   3.484261   3.908279   5.308961   5.903867
    15  O    2.920521   2.615357   2.554516   3.788659   4.236751
    16  O    2.378738   1.446124   2.427430   2.878987   4.063443
    17  N    3.706680   2.392848   2.911835   3.377736   4.367178
    18  O    4.187263   2.653498   2.671871   3.323161   4.047571
    19  C    4.884452   3.764576   4.352565   4.607664   5.570793
    20  O    5.910554   4.897215   5.515012   5.673674   6.613535
    21  H    2.164479   2.850184   4.118461   5.026736   6.069633
    22  H    2.163065   2.827301   4.169774   4.677700   5.863908
    23  H    1.096491   2.204046   2.787871   2.807754   3.838953
    24  H    1.095792   2.211905   2.680118   3.305624   4.100351
                   11         12         13         14         15
    11  O    0.000000
    12  O    4.031781   0.000000
    13  N    4.824183   1.406942   0.000000
    14  O    5.968441   2.190207   1.227322   0.000000
    15  O    4.589881   2.256706   1.228030   2.224084   0.000000
    16  O    2.550997   2.297440   3.601976   4.473989   4.027830
    17  N    3.242274   2.773367   4.017453   4.666752   4.631734
    18  O    3.617112   2.775426   3.687395   4.245626   4.283901
    19  C    4.215457   4.057209   5.358976   5.862812   6.066348
    20  O    5.162523   5.151293   6.468692   6.893527   7.220085
    21  H    4.967217   2.562598   3.100399   3.664789   3.488000
    22  H    4.192646   3.183726   4.230281   4.963305   4.593262
    23  H    2.414169   3.385643   4.076373   5.212600   3.800813
    24  H    3.532920   2.821527   2.926705   4.040076   2.398554
                   16         17         18         19         20
    16  O    0.000000
    17  N    1.437931   0.000000
    18  O    2.356229   1.271271   0.000000
    19  C    2.514539   1.478164   2.384802   0.000000
    20  O    3.576074   2.656578   3.480473   1.178549   0.000000
    21  H    3.359792   4.473607   5.021250   5.404460   6.284929
    22  H    2.581604   3.841225   4.769366   4.467433   5.201904
    23  H    2.622891   3.995446   4.596510   5.046543   6.003676
    24  H    3.353251   4.568285   4.824920   5.849865   6.919100
                   21         22         23         24
    21  H    0.000000
    22  H    1.796706   0.000000
    23  H    3.046438   2.483239   0.000000
    24  H    2.506140   3.060883   1.726465   0.000000
 Stoichiometry    C4H4N4O12
 Framework group  C1[X(C4H4N4O12)]
 Deg. of freedom    66
 Full point group                 C1      NOp   1
 Largest Abelian subgroup         C1      NOp   1
 Largest concise Abelian subgroup C1      NOp   1
                         Standard orientation:                         
 ---------------------------------------------------------------------
 Center     Atomic      Atomic             Coordinates (Angstroms)
 Number     Number       Type             X           Y           Z
 ---------------------------------------------------------------------
      1          8           0       -4.069759    1.384294    0.719383
      2          7           0       -4.262220    0.685101   -0.276339
      3          8           0       -5.291215    0.480016   -0.914788
      4          8           0       -3.142483   -0.010593   -0.798878
      5          6           0       -1.949505    0.236121   -0.055539
      6          6           0       -0.816463   -0.550985   -0.719079
      7          6           0        0.570644   -0.356218   -0.029618
      8          8           0        1.551146   -1.231062   -0.596914
      9          7           0        1.932963   -0.963870   -1.919731
     10          8           0        2.662780   -1.832627   -2.387259
     11          8           0        1.523397    0.075472   -2.432589
     12          8           0        0.402945   -0.569914    1.386223
     13          7           0        0.299292   -1.914204    1.788252
     14          8           0        0.277289   -2.034993    3.009418
     15          8           0        0.171639   -2.763812    0.910796
     16          8           0        0.851921    1.054837   -0.174814
     17          7           0        2.087090    1.429046    0.459197
     18          8           0        2.894903    0.542967    0.881611
     19          6           0        2.418176    2.862687    0.600706
     20          8           0        2.659311    4.011180    0.709313
     21          1           0       -2.083589   -0.103811    0.977800
     22          1           0       -1.715275    1.307034   -0.071968
     23          1           0       -0.776351   -0.242200   -1.770429
     24          1           0       -1.096764   -1.609285   -0.765892
 ---------------------------------------------------------------------
 Rotational constants (GHZ):           0.3763518           0.2125796           0.1927161
 Standard basis: 6-31G(d) (6D, 7F)
 There are   308 symmetry adapted cartesian basis functions of A   symmetry.
 There are   308 symmetry adapted basis functions of A   symmetry.
   308 basis functions,   576 primitive gaussians,   308 cartesian basis functions
    76 alpha electrons       76 beta electrons
       nuclear repulsion energy      1724.0681513307 Hartrees.
 NAtoms=   24 NActive=   24 NUniq=   24 SFac= 1.00D+00 NAtFMM=   60 NAOKFM=F Big=F
 Integral buffers will be    131072 words long.
 Raffenetti 1 integral format.
 Two-electron integral symmetry is turned on.
 One-electron integrals computed using PRISM.
 NBasis=   308 RedAO= T EigKep=  1.70D-03  NBF=   308
 NBsUse=   308 1.00D-06 EigRej= -1.00D+00 NBFU=   308
 ExpMin= 1.61D-01 ExpMax= 5.48D+03 ExpMxC= 8.25D+02 IAcc=3 IRadAn=         5 AccDes= 0.00D+00
 Harris functional with IExCor=  205 and IRadAn=       5 diagonalized for initial guess.
 HarFok:  IExCor=  205 AccDes= 0.00D+00 IRadAn=         5 IDoV= 1 UseB2=F ITyADJ=14
 ICtDFT=  3500011 ScaDFX=  1.000000  1.000000  1.000000  1.000000
 FoFCou: FMM=F IPFlag=           0 FMFlag=      100000 FMFlg1=           0
         NFxFlg=           0 DoJE=T BraDBF=F KetDBF=T FulRan=T
         wScrn=  0.000000 ICntrl=       500 IOpCl=  0 I1Cent=   200000004 NGrid=           0
         NMat0=    1 NMatS0=      1 NMatT0=    0 NMatD0=    1 NMtDS0=    0 NMtDT0=    0
 Petite list used in FoFCou.
 Requested convergence on RMS density matrix=1.00D-08 within 128 cycles.
 Requested convergence on MAX density matrix=1.00D-06.
 Requested convergence on             energy=1.00D-06.
 No special actions if energy rises.
 Integral accuracy reduced to 1.0D-05 until final iterations.
 Initial convergence to 1.0D-05 achieved.  Increase integral accuracy.
 SCF Done:  E(RHF) =  -1269.05544899     A.U. after   19 cycles
            NFock= 19  Conv=0.83D-08     -V/T= 2.0047

 **********************************************************************

            Population analysis using the SCF Density.

 **********************************************************************

 Orbital symmetries:
       Occupied  (A) (A) (A) (A) (A) (A) (A) (A) (A) (A) (A) (A)
                 (A) (A) (A) (A) (A) (A) (A) (A) (A) (A) (A) (A)
                 (A) (A) (A) (A) (A) (A) (A) (A) (A) (A) (A) (A)
                 (A) (A) (A) (A) (A) (A) (A) (A) (A) (A) (A) (A)
                 (A) (A) (A) (A) (A) (A) (A) (A) (A) (A) (A) (A)
                 (A) (A) (A) (A) (A) (A) (A) (A) (A) (A) (A) (A)
                 (A) (A) (A) (A)
       Virtual   (A) (A) (A) (A) (A) (A) (A) (A) (A) (A) (A) (A)
                 (A) (A) (A) (A) (A) (A) (A) (A) (A) (A) (A) (A)
                 (A) (A) (A) (A) (A) (A) (A) (A) (A) (A) (A) (A)
                 (A) (A) (A) (A) (A) (A) (A) (A) (A) (A) (A) (A)
                 (A) (A) (A) (A) (A) (A) (A) (A) (A) (A) (A) (A)
                 (A) (A) (A) (A) (A) (A) (A) (A) (A) (A) (A) (A)
                 (A) (A) (A) (A) (A) (A) (A) (A) (A) (A) (A) (A)
                 (A) (A) (A) (A) (A) (A) (A) (A) (A) (A) (A) (A)
                 (A) (A) (A) (A) (A) (A) (A) (A) (A) (A) (A) (A)
                 (A) (A) (A) (A) (A) (A) (A) (A) (A) (A) (A) (A)
                 (A) (A) (A) (A) (A) (A) (A) (A) (A) (A) (A) (A)
                 (A) (A) (A) (A) (A) (A) (A) (A) (A) (A) (A) (A)
                 (A) (A) (A) (A) (A) (A) (A) (A) (A) (A) (A) (A)
                 (A) (A) (A) (A) (A) (A) (A) (A) (A) (A) (A) (A)
                 (A) (A) (A) (A) (A) (A) (A) (A) (A) (A) (A) (A)
                 (A) (A) (A) (A) (A) (A) (A) (A) (A) (A) (A) (A)
                 (A) (A) (A) (A) (A) (A) (A) (A) (A) (A) (A) (A)
                 (A) (A) (A) (A) (A) (A) (A) (A) (A) (A) (A) (A)
                 (A) (A) (A) (A) (A) (A) (A) (A) (A) (A) (A) (A)
                 (A) (A) (A) (A)
 The electronic state is 1-A.
 Alpha  occ. eigenvalues --  -20.76104 -20.74233 -20.73334 -20.73307 -20.70619
 Alpha  occ. eigenvalues --  -20.68010 -20.67995 -20.67777 -20.67526 -20.66330
 Alpha  occ. eigenvalues --  -20.66072 -20.56395 -15.97840 -15.97699 -15.95432
 Alpha  occ. eigenvalues --  -15.83956 -11.54867 -11.53530 -11.34960 -11.30670
 Alpha  occ. eigenvalues --   -1.70134  -1.69209  -1.67013  -1.57767  -1.56475
 Alpha  occ. eigenvalues --   -1.50175  -1.47338  -1.46840  -1.46295  -1.45607
 Alpha  occ. eigenvalues --   -1.45054  -1.41033  -1.15765  -1.10971  -1.05485
 Alpha  occ. eigenvalues --   -0.99433  -0.98080  -0.90689  -0.88891  -0.87119
 Alpha  occ. eigenvalues --   -0.84974  -0.83070  -0.82182  -0.81060  -0.81011
 Alpha  occ. eigenvalues --   -0.80399  -0.79765  -0.79394  -0.77590  -0.76822
 Alpha  occ. eigenvalues --   -0.75521  -0.73792  -0.71900  -0.69965  -0.69748
 Alpha  occ. eigenvalues --   -0.68632  -0.67986  -0.66270  -0.63834  -0.60972
 Alpha  occ. eigenvalues --   -0.60084  -0.58619  -0.58358  -0.57501  -0.57058
 Alpha  occ. eigenvalues --   -0.55932  -0.54708  -0.54149  -0.54017  -0.53077
 Alpha  occ. eigenvalues --   -0.52932  -0.50849  -0.50584  -0.49288  -0.46851
 Alpha  occ. eigenvalues --   -0.36169
 Alpha virt. eigenvalues --    0.02542   0.05017   0.05395   0.07133   0.08170
 Alpha virt. eigenvalues --    0.10347   0.18181   0.19301   0.19949   0.23364
 Alpha virt. eigenvalues --    0.24992   0.26421   0.27266   0.28945   0.30135
 Alpha virt. eigenvalues --    0.32986   0.33901   0.37993   0.38854   0.42100
 Alpha virt. eigenvalues --    0.44567   0.44808   0.45765   0.48231   0.51431
 Alpha virt. eigenvalues --    0.56280   0.57228   0.58568   0.63999   0.64478
 Alpha virt. eigenvalues --    0.65349   0.65954   0.68544   0.71563   0.72466
 Alpha virt. eigenvalues --    0.73796   0.76362   0.78523   0.79651   0.80842
 Alpha virt. eigenvalues --    0.81130   0.82148   0.84814   0.85898   0.86385
 Alpha virt. eigenvalues --    0.87087   0.88228   0.89484   0.90506   0.91402
 Alpha virt. eigenvalues --    0.93989   0.95618   0.98084   1.00102   1.01933
 Alpha virt. eigenvalues --    1.02200   1.03663   1.04263   1.05374   1.05617
 Alpha virt. eigenvalues --    1.06519   1.07351   1.08398   1.09050   1.11013
 Alpha virt. eigenvalues --    1.11237   1.12827   1.13462   1.15018   1.16424
 Alpha virt. eigenvalues --    1.16921   1.17976   1.18829   1.19824   1.20808
 Alpha virt. eigenvalues --    1.21282   1.21578   1.21855   1.23179   1.23746
 Alpha virt. eigenvalues --    1.24187   1.25157   1.25632   1.27259   1.28345
 Alpha virt. eigenvalues --    1.29206   1.29794   1.32809   1.33564   1.36278
 Alpha virt. eigenvalues --    1.37293   1.39846   1.40131   1.41531   1.43106
 Alpha virt. eigenvalues --    1.46135   1.48579   1.49517   1.50424   1.54667
 Alpha virt. eigenvalues --    1.55542   1.56345   1.58342   1.58967   1.61623
 Alpha virt. eigenvalues --    1.62590   1.64189   1.64600   1.66760   1.68394
 Alpha virt. eigenvalues --    1.69088   1.70042   1.71157   1.72874   1.73277
 Alpha virt. eigenvalues --    1.76685   1.78735   1.81551   1.83817   1.85811
 Alpha virt. eigenvalues --    1.88255   1.90002   1.92936   1.93654   1.97448
 Alpha virt. eigenvalues --    1.98286   1.98973   2.01198   2.01429   2.02139
 Alpha virt. eigenvalues --    2.03184   2.03957   2.04114   2.04694   2.05039
 Alpha virt. eigenvalues --    2.05436   2.06519   2.07217   2.08503   2.09048
 Alpha virt. eigenvalues --    2.11659   2.12262   2.13041   2.14103   2.14716
 Alpha virt. eigenvalues --    2.16224   2.17598   2.18466   2.20958   2.21927
 Alpha virt. eigenvalues --    2.23492   2.24970   2.26723   2.28310   2.30007
 Alpha virt. eigenvalues --    2.30125   2.31830   2.33077   2.34229   2.36905
 Alpha virt. eigenvalues --    2.37971   2.38734   2.39525   2.40997   2.43142
 Alpha virt. eigenvalues --    2.46024   2.48324   2.50925   2.51211   2.53326
 Alpha virt. eigenvalues --    2.54358   2.58890   2.59782   2.61634   2.63092
 Alpha virt. eigenvalues --    2.72804   2.75198   2.77113   2.78899   2.80957
 Alpha virt. eigenvalues --    2.83280   2.86608   2.91505   2.94885   2.98739
 Alpha virt. eigenvalues --    2.99912   3.00385   3.00813   3.01299   3.02298
 Alpha virt. eigenvalues --    3.04232   3.08285   3.09794   3.13659   3.14736
 Alpha virt. eigenvalues --    3.15647   3.16607   3.17379   3.17522   3.18298
 Alpha virt. eigenvalues --    3.19276   3.20140   3.22519   3.26473   3.32711
 Alpha virt. eigenvalues --    3.35360   3.37062   3.39455   3.40766   3.45907
 Alpha virt. eigenvalues --    3.46608   3.48240   3.95103   3.97353   4.04803
 Alpha virt. eigenvalues --    4.09722   4.17043   4.18506   4.18619   4.19065
 Alpha virt. eigenvalues --    4.21561   4.22981   4.28976   4.43248   4.44964
 Alpha virt. eigenvalues --    4.53391   4.55538   4.72929   4.74981   4.86074
 Alpha virt. eigenvalues --    4.95423   5.09916
          Condensed to atoms (all electrons):
               1          2          3          4          5          6
     1  O    8.264676   0.324502  -0.074176  -0.085698  -0.001222   0.000752
     2  N    0.324502   5.236022   0.374196   0.206425  -0.039978   0.002999
     3  O   -0.074176   0.374196   8.181427  -0.084107   0.003341  -0.000081
     4  O   -0.085698   0.206425  -0.084107   8.416150   0.132901  -0.029215
     5  C   -0.001222  -0.039978   0.003341   0.132901   4.899490   0.301418
     6  C    0.000752   0.002999  -0.000081  -0.029215   0.301418   5.248774
     7  C    0.000018  -0.000027   0.000000   0.000894  -0.041048   0.393785
     8  O    0.000000   0.000000   0.000000  -0.000004   0.002015  -0.042148
     9  N    0.000000   0.000000   0.000000   0.000000  -0.000042  -0.002007
    10  O    0.000000   0.000000   0.000000   0.000000  -0.000001  -0.000272
    11  O    0.000000   0.000000   0.000000   0.000000   0.000205  -0.007387
    12  O    0.000000   0.000001   0.000000   0.000027  -0.003251  -0.051908
    13  N    0.000000   0.000000   0.000000  -0.000007   0.000804  -0.004658
    14  O    0.000000   0.000000   0.000000   0.000000  -0.000007  -0.000271
    15  O    0.000000   0.000000   0.000000   0.000000   0.000066  -0.007286
    16  O    0.000000   0.000001   0.000000   0.000012   0.000863  -0.060443
    17  N    0.000000   0.000000   0.000000   0.000000  -0.000107   0.003244
    18  O    0.000000   0.000000   0.000000   0.000000   0.000007   0.000156
    19  C    0.000000   0.000000   0.000000   0.000000   0.000008  -0.000061
    20  O    0.000000   0.000000   0.000000   0.000000   0.000000   0.000000
    21  H    0.001516  -0.003244  -0.000004  -0.032052   0.400753  -0.040950
    22  H    0.001661  -0.003403  -0.000001  -0.031198   0.402159  -0.041993
    23  H   -0.000006  -0.000125  -0.000003   0.001644  -0.030419   0.373957
    24  H   -0.000005  -0.000125  -0.000002   0.001838  -0.029930   0.381445
               7          8          9         10         11         12
     1  O    0.000018   0.000000   0.000000   0.000000   0.000000   0.000000
     2  N   -0.000027   0.000000   0.000000   0.000000   0.000000   0.000001
     3  O    0.000000   0.000000   0.000000   0.000000   0.000000   0.000000
     4  O    0.000894  -0.000004   0.000000   0.000000   0.000000   0.000027
     5  C   -0.041048   0.002015  -0.000042  -0.000001   0.000205  -0.003251
     6  C    0.393785  -0.042148  -0.002007  -0.000272  -0.007387  -0.051908
     7  C    4.218201   0.143488  -0.014711   0.002282   0.005768   0.131547
     8  O    0.143488   8.460612   0.184233  -0.081694  -0.086802  -0.020788
     9  N   -0.014711   0.184233   5.211336   0.379515   0.319157   0.000550
    10  O    0.002282  -0.081694   0.379515   8.158916  -0.077384  -0.000019
    11  O    0.005768  -0.086802   0.319157  -0.077384   8.279884  -0.000073
    12  O    0.131547  -0.020788   0.000550  -0.000019  -0.000073   8.491443
    13  N   -0.014018  -0.000098  -0.000026  -0.000004   0.000005   0.178595
    14  O    0.002348  -0.000131   0.000000   0.000000   0.000000  -0.083038
    15  O    0.011715  -0.014793   0.000187  -0.000003  -0.000008  -0.087845
    16  O    0.175968  -0.031352   0.001416  -0.000048  -0.019780  -0.032021
    17  N   -0.029449   0.002073  -0.001012  -0.000033   0.002308  -0.000600
    18  O    0.025480  -0.013600   0.002013  -0.000050  -0.000373  -0.006378
    19  C    0.002792  -0.000040  -0.000046   0.000000   0.000165  -0.000081
    20  O   -0.000009   0.000000   0.000000   0.000000   0.000000   0.000000
    21  H   -0.002957   0.000003  -0.000002   0.000000  -0.000004   0.003175
    22  H   -0.000939   0.000008  -0.000002   0.000000   0.000033   0.000231
    23  H   -0.022600  -0.000534  -0.001390  -0.000033   0.003235   0.002215
    24  H   -0.024116  -0.001101   0.000301  -0.000022   0.000212  -0.000257
              13         14         15         16         17         18
     1  O    0.000000   0.000000   0.000000   0.000000   0.000000   0.000000
     2  N    0.000000   0.000000   0.000000   0.000001   0.000000   0.000000
     3  O    0.000000   0.000000   0.000000   0.000000   0.000000   0.000000
     4  O   -0.000007   0.000000   0.000000   0.000012   0.000000   0.000000
     5  C    0.000804  -0.000007   0.000066   0.000863  -0.000107   0.000007
     6  C   -0.004658  -0.000271  -0.007286  -0.060443   0.003244   0.000156
     7  C   -0.014018   0.002348   0.011715   0.175968  -0.029449   0.025480
     8  O   -0.000098  -0.000131  -0.014793  -0.031352   0.002073  -0.013600
     9  N   -0.000026   0.000000   0.000187   0.001416  -0.001012   0.002013
    10  O   -0.000004   0.000000  -0.000003  -0.000048  -0.000033  -0.000050
    11  O    0.000005   0.000000  -0.000008  -0.019780   0.002308  -0.000373
    12  O    0.178595  -0.083038  -0.087845  -0.032021  -0.000600  -0.006378
    13  N    5.234263   0.371497   0.320728   0.000890  -0.000141   0.000444
    14  O    0.371497   8.166112  -0.076400  -0.000033   0.000006  -0.000027
    15  O    0.320728  -0.076400   8.259074  -0.000062   0.000003  -0.000015
    16  O    0.000890  -0.000033  -0.000062   8.453024   0.103832  -0.050624
    17  N   -0.000141   0.000006   0.000003   0.103832   6.299405   0.093375
    18  O    0.000444  -0.000027  -0.000015  -0.050624   0.093375   8.559441
    19  C    0.000000   0.000000   0.000000  -0.045814   0.419961  -0.043501
    20  O    0.000000   0.000000   0.000000   0.000313  -0.029376   0.000437
    21  H   -0.000116  -0.000014   0.000129   0.000228  -0.000012   0.000002
    22  H    0.000004   0.000001  -0.000008   0.003225   0.000007   0.000005
    23  H    0.000012   0.000001   0.000323  -0.000287  -0.000093   0.000002
    24  H   -0.000831   0.000008   0.002238   0.001781  -0.000023   0.000006
              19         20         21         22         23         24
     1  O    0.000000   0.000000   0.001516   0.001661  -0.000006  -0.000005
     2  N    0.000000   0.000000  -0.003244  -0.003403  -0.000125  -0.000125
     3  O    0.000000   0.000000  -0.000004  -0.000001  -0.000003  -0.000002
     4  O    0.000000   0.000000  -0.032052  -0.031198   0.001644   0.001838
     5  C    0.000008   0.000000   0.400753   0.402159  -0.030419  -0.029930
     6  C   -0.000061   0.000000  -0.040950  -0.041993   0.373957   0.381445
     7  C    0.002792  -0.000009  -0.002957  -0.000939  -0.022600  -0.024116
     8  O   -0.000040   0.000000   0.000003   0.000008  -0.000534  -0.001101
     9  N   -0.000046   0.000000  -0.000002  -0.000002  -0.001390   0.000301
    10  O    0.000000   0.000000   0.000000   0.000000  -0.000033  -0.000022
    11  O    0.000165   0.000000  -0.000004   0.000033   0.003235   0.000212
    12  O   -0.000081   0.000000   0.003175   0.000231   0.002215  -0.000257
    13  N    0.000000   0.000000  -0.000116   0.000004   0.000012  -0.000831
    14  O    0.000000   0.000000  -0.000014   0.000001   0.000001   0.000008
    15  O    0.000000   0.000000   0.000129  -0.000008   0.000323   0.002238
    16  O   -0.045814   0.000313   0.000228   0.003225  -0.000287   0.001781
    17  N    0.419961  -0.029376  -0.000012   0.000007  -0.000093  -0.000023
    18  O   -0.043501   0.000437   0.000002   0.000005   0.000002   0.000006
    19  C    4.196990   0.568827   0.000001   0.000017   0.000001   0.000001
    20  O    0.568827   7.798907   0.000000   0.000000   0.000000   0.000000
    21  H    0.000001   0.000000   0.487612  -0.029340   0.003606  -0.003166
    22  H    0.000017   0.000000  -0.029340   0.479634  -0.003214   0.003273
    23  H    0.000001   0.000000   0.003606  -0.003214   0.440871  -0.021453
    24  H    0.000001   0.000000  -0.003166   0.003273  -0.021453   0.425481
 Mulliken charges:
               1
     1  O   -0.432017
     2  N    0.902755
     3  O   -0.400591
     4  O   -0.497610
     5  C    0.001976
     6  C   -0.417851
     7  C    1.035588
     8  O   -0.499348
     9  N    0.920529
    10  O   -0.381150
    11  O   -0.419159
    12  O   -0.521522
    13  N    0.912658
    14  O   -0.380053
    15  O   -0.408044
    16  O   -0.501090
    17  N    0.136631
    18  O   -0.566799
    19  C    0.900781
    20  O   -0.339099
    21  H    0.214838
    22  H    0.219841
    23  H    0.254289
    24  H    0.264444
 Sum of Mulliken charges =   0.00000
 Mulliken charges with hydrogens summed into heavy atoms:
               1
     1  O   -0.432017
     2  N    0.902755
     3  O   -0.400591
     4  O   -0.497610
     5  C    0.436655
     6  C    0.100882
     7  C    1.035588
     8  O   -0.499348
     9  N    0.920529
    10  O   -0.381150
    11  O   -0.419159
    12  O   -0.521522
    13  N    0.912658
    14  O   -0.380053
    15  O   -0.408044
    16  O   -0.501090
    17  N    0.136631
    18  O   -0.566799
    19  C    0.900781
    20  O   -0.339099
 Electronic spatial extent (au):  <R**2>=           5970.7002
 Charge=              0.0000 electrons
 Dipole moment (field-independent basis, Debye):
    X=              0.3098    Y=              3.3113    Z=             -0.4891  Tot=              3.3615
 Quadrupole moment (field-independent basis, Debye-Ang):
   XX=           -137.5404   YY=           -110.1696   ZZ=           -121.8959
   XY=             12.7100   XZ=             -0.5732   YZ=              1.8515
 Traceless Quadrupole moment (field-independent basis, Debye-Ang):
   XX=            -14.3384   YY=             13.0324   ZZ=              1.3060
   XY=             12.7100   XZ=             -0.5732   YZ=              1.8515
 Octapole moment (field-independent basis, Debye-Ang**2):
  XXX=             91.1114  YYY=             25.0529  ZZZ=             -3.4758  XYY=              9.1078
  XXY=             -0.3466  XXZ=             18.0146  XZZ=            -10.7224  YZZ=             10.3908
  YYZ=             -4.4942  XYZ=              4.0160
 Hexadecapole moment (field-independent basis, Debye-Ang**3):
 XXXX=          -4715.9164 YYYY=          -1865.0083 ZZZZ=          -1346.2847 XXXY=            149.8875
 XXXZ=            -94.0551 YYYX=             10.6535 YYYZ=              5.6892 ZZZX=             23.6763
 ZZZY=             28.1263 XXYY=           -957.9676 XXZZ=           -940.4051 YYZZ=           -524.7444
 XXYZ=            -47.0971 YYXZ=             33.6099 ZZXY=             18.7684
 N-N= 1.724068151331D+03 E-N=-6.434198591800D+03  KE= 1.263173290831D+03
 Calling FoFJK, ICntrl=      2127 FMM=F ISym2X=0 I1Cent= 0 IOpClX= 0 NMat=1 NMatS=1 NMatT=0.
 ***** Axes restored to original set *****
 -------------------------------------------------------------------
 Center     Atomic                   Forces (Hartrees/Bohr)
 Number     Number              X              Y              Z
 -------------------------------------------------------------------
      1        8           0.025008030   -0.080695849    0.028341432
      2        7           0.017356139   -0.002485182   -0.004987811
      3        8          -0.083042014    0.054365575    0.003188125
      4        8           0.034314355    0.027615209   -0.023428860
      5        6          -0.016203210    0.021438191   -0.006039318
      6        6           0.018174711   -0.017853788    0.014779778
      7        6           0.035096332    0.009668491    0.008609334
      8        8           0.017605816    0.010496280    0.024591116
      9        7          -0.007824859   -0.014422932    0.035244826
     10        8           0.065707748    0.074285988   -0.033866512
     11        8          -0.065092494   -0.048053520   -0.036954627
     12        8          -0.027909674   -0.044014387    0.007497010
     13        7          -0.007277967   -0.013190833   -0.041527279
     14        8           0.034752397   -0.042341066    0.087138561
     15        8          -0.012721744    0.084682514   -0.027847734
     16        8          -0.035757635    0.007791015   -0.017447231
     17        7           0.027472564    0.139071489    0.063694071
     18        8          -0.012760724    0.000471610    0.001032517
     19        6           0.026513408   -0.070092327   -0.031513523
     20        8          -0.022327028   -0.107987463   -0.048234749
     21        1           0.008400885    0.000482830    0.011303670
     22        1           0.000352055   -0.010213555   -0.009859827
     23        1          -0.010521640    0.007856019   -0.005835949
     24        1          -0.009315451    0.013125692    0.002122985
 -------------------------------------------------------------------
 Cartesian Forces:  Max     0.139071489 RMS     0.040213322

 GradGradGradGradGradGradGradGradGradGradGradGradGradGradGradGradGradGrad
 Berny optimization.
 FormGI is forming the generalized inverse of G from B-inverse, IUseBI=4.
 Internal  Forces:  Max     0.193463963 RMS     0.035579820
 Search for a local minimum.
 Step number   1 out of a maximum of  111
 All quantities printed in internal units (Hartrees-Bohrs-Radians)
 Mixed Optimization -- RFO/linear search
 Second derivative matrix not updated -- first step.
 ITU=  0
     Eigenvalues ---    0.00230   0.00357   0.00793   0.01056   0.01082
     Eigenvalues ---    0.01141   0.01203   0.01262   0.01278   0.01333
     Eigenvalues ---    0.02273   0.02894   0.02946   0.02952   0.03272
     Eigenvalues ---    0.04621   0.04621   0.04664   0.05416   0.05872
     Eigenvalues ---    0.06779   0.08016   0.08597   0.10285   0.11084
     Eigenvalues ---    0.12388   0.13573   0.18797   0.19383   0.21823
     Eigenvalues ---    0.22060   0.24963   0.24998   0.24999   0.25000
     Eigenvalues ---    0.25000   0.25000   0.25000   0.25000   0.25000
     Eigenvalues ---    0.25000   0.25000   0.25000   0.26720   0.29342
     Eigenvalues ---    0.34073   0.34089   0.34123   0.34152   0.34781
     Eigenvalues ---    0.38757   0.39358   0.39871   0.40806   0.41409
     Eigenvalues ---    0.42756   0.44489   0.45208   0.75847   0.90333
     Eigenvalues ---    0.91409   0.91835   0.91912   0.92211   0.92274
     Eigenvalues ---    1.16385
 RFO step:  Lambda=-1.76320889D-01 EMin= 2.30000000D-03
 Linear search not attempted -- first point.
 Maximum step size (   0.300) exceeded in Quadratic search.
    -- Step size scaled by   0.569
 Iteration  1 RMS(Cart)=  0.07062811 RMS(Int)=  0.00196540
 Iteration  2 RMS(Cart)=  0.00300862 RMS(Int)=  0.00009428
 Iteration  3 RMS(Cart)=  0.00000844 RMS(Int)=  0.00009417
 Iteration  4 RMS(Cart)=  0.00000000 RMS(Int)=  0.00009417
 Variable       Old X    -DE/DX   Delta X   Delta X   Delta X     New X
                                 (Linear)    (Quad)   (Total)
    R1        2.32780  -0.08889   0.00000  -0.04687  -0.04687   2.28093
    R2        2.32099  -0.09926   0.00000  -0.05162  -0.05162   2.26936
    R3        2.67971  -0.05646   0.00000  -0.05323  -0.05323   2.62648
    R4        2.69683  -0.00491   0.00000  -0.00473  -0.00473   2.69210
    R5        2.89295  -0.00282   0.00000  -0.00341  -0.00341   2.88954
    R6        2.07123  -0.01309   0.00000  -0.01440  -0.01440   2.05683
    R7        2.07181  -0.01356   0.00000  -0.01492  -0.01492   2.05689
    R8        2.95025  -0.02098   0.00000  -0.02694  -0.02694   2.92331
    R9        2.07207  -0.01123   0.00000  -0.01236  -0.01236   2.05971
   R10        2.07075  -0.01160   0.00000  -0.01275  -0.01275   2.05799
   R11        2.70473  -0.02526   0.00000  -0.02461  -0.02461   2.68012
   R12        2.72435  -0.02398   0.00000  -0.02396  -0.02396   2.70039
   R13        2.73278  -0.04627   0.00000  -0.04671  -0.04671   2.68607
   R14        2.65035  -0.03812   0.00000  -0.03454  -0.03454   2.61581
   R15        2.31902  -0.10477   0.00000  -0.05427  -0.05427   2.26475
   R16        2.32290  -0.08829   0.00000  -0.04610  -0.04610   2.27681
   R17        2.65874  -0.03649   0.00000  -0.03344  -0.03344   2.62529
   R18        2.31930  -0.10289   0.00000  -0.05333  -0.05333   2.26597
   R19        2.32064  -0.08972   0.00000  -0.04663  -0.04663   2.27401
   R20        2.71730  -0.03946   0.00000  -0.03906  -0.03906   2.67823
   R21        2.40235   0.01122   0.00000   0.00684   0.00684   2.40919
   R22        2.79332  -0.19346   0.00000  -0.21015  -0.21015   2.58318
   R23        2.22713  -0.12017   0.00000  -0.05105  -0.05105   2.17609
    A1        2.27295  -0.00729   0.00000  -0.00973  -0.00973   2.26322
    A2        2.04088   0.00730   0.00000   0.00975   0.00975   2.05063
    A3        1.96935  -0.00001   0.00000  -0.00001  -0.00001   1.96934
    A4        1.96421   0.01065   0.00000   0.01422   0.01422   1.97842
    A5        1.87974  -0.02090   0.00000  -0.03030  -0.03022   1.84952
    A6        1.91260   0.00408   0.00000   0.00399   0.00411   1.91671
    A7        1.91735   0.00439   0.00000   0.00426   0.00434   1.92169
    A8        1.91741   0.00940   0.00000   0.01564   0.01558   1.93299
    A9        1.91517   0.00794   0.00000   0.01278   0.01270   1.92787
   A10        1.92113  -0.00512   0.00000  -0.00670  -0.00686   1.91427
   A11        1.98453  -0.00307   0.00000  -0.00541  -0.00540   1.97913
   A12        1.87326   0.00446   0.00000   0.00932   0.00926   1.88252
   A13        1.90261   0.00530   0.00000   0.01024   0.01017   1.91278
   A14        1.93457  -0.00357   0.00000  -0.00836  -0.00834   1.92623
   A15        1.94617  -0.00559   0.00000  -0.01271  -0.01269   1.93348
   A16        1.81355   0.00349   0.00000   0.00915   0.00901   1.82256
   A17        1.93624   0.00715   0.00000   0.01544   0.01551   1.95176
   A18        1.88795   0.01796   0.00000   0.03028   0.03040   1.91836
   A19        1.82369  -0.00410   0.00000  -0.00236  -0.00229   1.82139
   A20        1.95880  -0.01675   0.00000  -0.02976  -0.03007   1.92873
   A21        2.00796   0.00482   0.00000   0.00596   0.00564   2.01360
   A22        1.83990  -0.00768   0.00000  -0.01704  -0.01716   1.82273
   A23        2.03073   0.03091   0.00000   0.04128   0.04128   2.07201
   A24        1.96749  -0.01204   0.00000  -0.01606  -0.01607   1.95142
   A25        2.05318   0.01829   0.00000   0.02444   0.02443   2.07761
   A26        2.26240  -0.00623   0.00000  -0.00831  -0.00831   2.25409
   A27        2.01620   0.03602   0.00000   0.04810   0.04810   2.06431
   A28        1.96023  -0.00668   0.00000  -0.00884  -0.00885   1.95139
   A29        2.05389   0.01205   0.00000   0.01617   0.01616   2.07005
   A30        2.26658  -0.00522   0.00000  -0.00690  -0.00690   2.25967
   A31        1.95707   0.00943   0.00000   0.01259   0.01259   1.96966
   A32        2.10709   0.02829   0.00000   0.03777   0.03777   2.14486
   A33        2.07946  -0.04254   0.00000  -0.05681  -0.05681   2.02265
   A34        2.09656   0.01424   0.00000   0.01901   0.01901   2.11557
   A35        3.12194   0.01401   0.00000   0.03585   0.03585   3.15779
   A36        3.14696  -0.00504   0.00000  -0.01289  -0.01289   3.13406
    D1       -3.14106  -0.00012   0.00000  -0.00032  -0.00032  -3.14138
    D2       -0.00435   0.00014   0.00000   0.00043   0.00043  -0.00392
    D3        3.13770   0.00005   0.00000   0.00015   0.00015   3.13785
    D4       -3.13129   0.00060   0.00000   0.00126   0.00127  -3.13003
    D5        1.06665  -0.00072   0.00000  -0.00198  -0.00201   1.06464
    D6       -1.04607   0.00024   0.00000   0.00108   0.00111  -1.04496
    D7        3.12056   0.00052   0.00000   0.00118   0.00120   3.12175
    D8        0.97447   0.00385   0.00000   0.00863   0.00869   0.98315
    D9       -0.97948  -0.00494   0.00000  -0.01149  -0.01153  -0.99101
   D10       -1.08045  -0.00161   0.00000  -0.00309  -0.00316  -1.08362
   D11        3.05664   0.00171   0.00000   0.00436   0.00433   3.06097
   D12        1.10269  -0.00707   0.00000  -0.01576  -0.01589   1.08681
   D13        1.03394   0.00310   0.00000   0.00673   0.00680   1.04075
   D14       -1.11215   0.00642   0.00000   0.01418   0.01429  -1.09786
   D15       -3.06609  -0.00236   0.00000  -0.00594  -0.00592  -3.07202
   D16        3.02556  -0.00404   0.00000  -0.00788  -0.00774   3.01781
   D17        0.87006   0.00015   0.00000  -0.00111  -0.00122   0.86884
   D18       -1.08388   0.00333   0.00000   0.00677   0.00677  -1.07711
   D19       -1.14551  -0.00305   0.00000  -0.00578  -0.00566  -1.15117
   D20        2.98218   0.00114   0.00000   0.00098   0.00087   2.98304
   D21        1.02824   0.00432   0.00000   0.00887   0.00886   1.03710
   D22        0.86589  -0.00434   0.00000  -0.00734  -0.00723   0.85866
   D23       -1.28961  -0.00015   0.00000  -0.00058  -0.00070  -1.29031
   D24        3.03963   0.00303   0.00000   0.00731   0.00729   3.04692
   D25        1.19197  -0.00557   0.00000  -0.00908  -0.00889   1.18308
   D26       -2.97693   0.01093   0.00000   0.02009   0.01991  -2.95702
   D27       -0.87323  -0.00883   0.00000  -0.02149  -0.02150  -0.89474
   D28        1.34397   0.00308   0.00000   0.00433   0.00425   1.34821
   D29       -0.79785  -0.00752   0.00000  -0.01683  -0.01638  -0.81422
   D30       -2.99619   0.00252   0.00000   0.00666   0.00629  -2.98990
   D31        3.10121   0.00255   0.00000   0.00297   0.00296   3.10417
   D32       -1.05472   0.01148   0.00000   0.02420   0.02426  -1.03046
   D33        1.11298  -0.01262   0.00000  -0.02287  -0.02293   1.09006
   D34       -3.01252  -0.00124   0.00000  -0.00379  -0.00376  -3.01628
   D35        0.14406  -0.00260   0.00000  -0.00779  -0.00782   0.13624
   D36       -3.12436  -0.00182   0.00000  -0.00494  -0.00492  -3.12928
   D37        3.03658  -0.00281   0.00000  -0.00865  -0.00868   3.02791
   D38       -0.17316  -0.00108   0.00000  -0.00312  -0.00309  -0.17625
   D39        3.06295   0.00284   0.00000   0.00751   0.00748   3.07043
   D40        0.18720   0.00325   0.00000   0.01017   0.01015   0.19735
   D41       -2.96767   0.00264   0.00000   0.00803   0.00805  -2.95962
   D42        3.12819  -0.00104   0.00000  -0.00274  -0.00276   3.12543
         Item               Value     Threshold  Converged?
 Maximum Force            0.193464     0.000450     NO 
 RMS     Force            0.035580     0.000300     NO 
 Maximum Displacement     0.264318     0.001800     NO 
 RMS     Displacement     0.071284     0.001200     NO 
 Predicted change in Energy=-8.008219D-02
 GradGradGradGradGradGradGradGradGradGradGradGradGradGradGradGradGradGrad

                          Input orientation:                          
 ---------------------------------------------------------------------
 Center     Atomic      Atomic             Coordinates (Angstroms)
 Number     Number       Type             X           Y           Z
 ---------------------------------------------------------------------
      1          8           0        3.608915    1.005823   -1.880039
      2          7           0        3.840525   -0.090600   -1.431601
      3          8           0        4.855128   -0.732359   -1.461185
      4          8           0        2.806458   -0.746432   -0.774071
      5          6           0        1.598470    0.007318   -0.728243
      6          6           0        0.593636   -0.854487    0.037054
      7          6           0       -0.786765   -0.178735    0.212863
      8          8           0       -1.738461   -1.063503    0.781115
      9          7           0       -1.569212   -1.468556    2.093888
     10          8           0       -2.358189   -2.315822    2.403645
     11          8           0       -0.706663   -0.952827    2.758460
     12          8           0       -1.250824    0.314854   -1.045316
     13          7           0       -1.777958   -0.593520   -1.954705
     14          8           0       -2.244073   -0.044477   -2.913421
     15          8           0       -1.656667   -1.769553   -1.730436
     16          8           0       -0.512510    0.990673    0.972906
     17          7           0       -1.665835    1.782319    1.200413
     18          8           0       -2.847003    1.372784    0.950486
     19          6           0       -1.443265    3.023362    1.728481
     20          8           0       -1.275828    4.071506    2.175013
     21          1           0        1.247093    0.203176   -1.739605
     22          1           0        1.764784    0.949427   -0.209101
     23          1           0        1.027163   -1.090042    1.008937
     24          1           0        0.491081   -1.820329   -0.455538
 ---------------------------------------------------------------------
                    Distance matrix (angstroms):
                    1          2          3          4          5
     1  O    0.000000
     2  N    1.207014   0.000000
     3  O    2.179396   1.200896   0.000000
     4  O    2.222049   1.389876   2.160873   0.000000
     5  C    2.523001   2.351831   3.419085   1.424596   0.000000
     6  C    4.028388   3.644552   4.518844   2.359276   1.529078
     7  C    5.010531   4.911602   5.910997   3.769293   2.570923
     8  O    6.321256   6.080110   6.972301   4.814087   3.815748
     9  N    6.980519   6.602506   7.379206   5.281396   4.491864
    10  O    8.061613   7.621337   8.335239   6.263740   5.555255
    11  O    6.631455   6.243153   6.984807   4.986321   4.288662
    12  O    4.979082   5.122054   6.209046   4.202552   2.883330
    13  N    5.619775   5.665149   6.652869   4.736470   3.642181
    14  O    6.035600   6.262607   7.278793   5.529685   4.420726
    15  O    5.954111   5.755632   6.599374   4.677702   3.841559
    16  O    5.012551   5.089176   6.140454   4.133402   2.883944
    17  N    6.157525   6.383989   7.478681   5.504051   4.186411
    18  O    7.058711   7.248369   8.340900   6.279076   4.944174
    19  C    6.528123   6.899370   7.996822   6.207597   4.938033
    20  O    7.050005   7.517171   8.595795   6.969555   5.762648
    21  H    2.498433   2.628129   3.737735   2.065340   1.088430
    22  H    2.489183   2.623901   3.734480   2.068868   1.088457
    23  H    4.405028   3.856178   4.569765   2.542258   2.132695
    24  H    4.442660   3.894026   4.608678   2.572098   2.154291
                    6          7          8          9         10
     6  C    0.000000
     7  C    1.546950   0.000000
     8  O    2.456825   1.418256   0.000000
     9  N    3.047221   2.411248   1.384227   0.000000
    10  O    4.055801   3.440354   2.141254   1.198454   0.000000
    11  O    3.017698   2.661897   2.233103   1.204834   2.170527
    12  O    2.437399   1.428984   2.339553   3.624434   4.476834
    13  N    3.108000   2.419270   2.776177   4.147333   4.722099
    14  O    4.173009   3.451873   3.865702   5.249436   5.783011
    15  O    3.004202   2.657789   2.610189   3.837148   4.228614
    16  O    2.346059   1.421406   2.399870   2.901900   4.048018
    17  N    3.662152   2.365112   2.877463   3.372807   4.326879
    18  O    4.199177   2.682514   2.681985   3.318634   3.994549
    19  C    4.695487   3.602987   4.205605   4.508516   5.458921
    20  O    5.686051   4.706779   5.340909   5.548418   6.482417
    21  H    2.168450   2.845095   4.107559   5.042017   6.042345
    22  H    2.164783   2.821561   4.159945   4.718679   5.872580
    23  H    1.089949   2.180493   2.775119   2.839288   3.861134
    24  H    1.089043   2.185058   2.659502   3.296683   4.066789
                   11         12         13         14         15
    11  O    0.000000
    12  O    4.046213   0.000000
    13  N    4.846721   1.389246   0.000000
    14  O    5.946340   2.146038   1.199102   0.000000
    15  O    4.660444   2.231334   1.203354   2.172644   0.000000
    16  O    2.646335   2.252788   3.561170   4.378741   4.029392
    17  N    3.290676   2.714588   3.951197   4.538191   4.604971
    18  O    3.641193   2.765904   3.667335   4.159559   4.298665
    19  C    4.172951   3.881623   5.172979   5.621404   5.914531
    20  O    5.090018   4.948088   6.250534   6.615963   7.036728
    21  H    5.038462   2.595014   3.135590   3.691532   3.510493
    22  H    4.305002   3.193091   4.240147   4.936813   4.627488
    23  H    2.466944   3.373858   4.110768   5.213356   3.894720
    24  H    3.537928   2.817991   2.983471   4.083614   2.498152
                   16         17         18         19         20
    16  O    0.000000
    17  N    1.417259   0.000000
    18  O    2.365664   1.274889   0.000000
    19  C    2.359878   1.366960   2.302209   0.000000
    20  O    3.394002   2.518397   3.354275   1.151535   0.000000
    21  H    3.327773   4.429735   5.036486   5.217193   6.054201
    22  H    2.566108   3.801262   4.774145   4.283341   4.967565
    23  H    2.588681   3.942000   4.591088   4.851892   5.771056
    24  H    3.308984   4.513705   4.828630   5.654464   6.689954
                   21         22         23         24
    21  H    0.000000
    22  H    1.779702   0.000000
    23  H    3.045532   2.487395   0.000000
    24  H    2.512957   3.058529   1.722030   0.000000
 Stoichiometry    C4H4N4O12
 Framework group  C1[X(C4H4N4O12)]
 Deg. of freedom    66
 Full point group                 C1      NOp   1
 Largest Abelian subgroup         C1      NOp   1
 Largest concise Abelian subgroup C1      NOp   1
                         Standard orientation:                         
 ---------------------------------------------------------------------
 Center     Atomic      Atomic             Coordinates (Angstroms)
 Number     Number       Type             X           Y           Z
 ---------------------------------------------------------------------
      1          8           0       -4.133055    1.233752    0.725034
      2          7           0       -4.260946    0.560143   -0.268332
      3          8           0       -5.245528    0.327453   -0.915328
      4          8           0       -3.124043   -0.058463   -0.774825
      5          6           0       -1.948191    0.214173   -0.018176
      6          6           0       -0.812057   -0.525823   -0.725060
      7          6           0        0.566129   -0.321205   -0.052907
      8          8           0        1.563640   -1.145269   -0.633719
      9          7           0        1.960316   -0.892246   -1.935530
     10          8           0        2.701407   -1.739108   -2.347723
     11          8           0        1.556152    0.099358   -2.487795
     12          8           0        0.465106   -0.570975    1.350448
     13          7           0        0.417000   -1.890530    1.782262
     14          8           0        0.459362   -1.969737    2.977995
     15          8           0        0.276397   -2.760214    0.962541
     16          8           0        0.800429    1.077536   -0.147893
     17          7           0        2.014283    1.475241    0.466119
     18          8           0        2.899769    0.643360    0.852421
     19          6           0        2.197764    2.822323    0.608544
     20          8           0        2.371146    3.953648    0.735327
     21          1           0       -2.071537   -0.150735    0.999816
     22          1           0       -1.753160    1.284902   -0.002642
     23          1           0       -0.783773   -0.184666   -1.759855
     24          1           0       -1.054234   -1.585277   -0.795216
 ---------------------------------------------------------------------
 Rotational constants (GHZ):           0.3860868           0.2153908           0.1974635
 Standard basis: 6-31G(d) (6D, 7F)
 There are   308 symmetry adapted cartesian basis functions of A   symmetry.
 There are   308 symmetry adapted basis functions of A   symmetry.
   308 basis functions,   576 primitive gaussians,   308 cartesian basis functions
    76 alpha electrons       76 beta electrons
       nuclear repulsion energy      1742.5854767208 Hartrees.
 NAtoms=   24 NActive=   24 NUniq=   24 SFac= 1.00D+00 NAtFMM=   60 NAOKFM=F Big=F
 Integral buffers will be    131072 words long.
 Raffenetti 1 integral format.
 Two-electron integral symmetry is turned on.
 One-electron integrals computed using PRISM.
 NBasis=   308 RedAO= T EigKep=  1.52D-03  NBF=   308
 NBsUse=   308 1.00D-06 EigRej= -1.00D+00 NBFU=   308
 Initial guess from the checkpoint file:  "C:\g16w\Scratch\Gau-25668.chk"
 B after Tr=     0.000000    0.000000    0.000000
         Rot=    0.999846   -0.001365   -0.001723   -0.017391 Ang=  -2.01 deg.
 ExpMin= 1.61D-01 ExpMax= 5.48D+03 ExpMxC= 8.25D+02 IAcc=3 IRadAn=         5 AccDes= 0.00D+00
 Harris functional with IExCor=  205 and IRadAn=       5 diagonalized for initial guess.
 HarFok:  IExCor=  205 AccDes= 0.00D+00 IRadAn=         5 IDoV= 1 UseB2=F ITyADJ=14
 ICtDFT=  3500011 ScaDFX=  1.000000  1.000000  1.000000  1.000000
 FoFCou: FMM=F IPFlag=           0 FMFlag=      100000 FMFlg1=           0
         NFxFlg=           0 DoJE=T BraDBF=F KetDBF=T FulRan=T
         wScrn=  0.000000 ICntrl=       500 IOpCl=  0 I1Cent=   200000004 NGrid=           0
         NMat0=    1 NMatS0=      1 NMatT0=    0 NMatD0=    1 NMtDS0=    0 NMtDT0=    0
 Petite list used in FoFCou.
 Requested convergence on RMS density matrix=1.00D-08 within 128 cycles.
 Requested convergence on MAX density matrix=1.00D-06.
 Requested convergence on             energy=1.00D-06.
 No special actions if energy rises.
 Integral accuracy reduced to 1.0D-05 until final iterations.
 Initial convergence to 1.0D-05 achieved.  Increase integral accuracy.
 SCF Done:  E(RHF) =  -1269.13880131     A.U. after   17 cycles
            NFock= 17  Conv=0.59D-08     -V/T= 2.0037
 Calling FoFJK, ICntrl=      2127 FMM=F ISym2X=0 I1Cent= 0 IOpClX= 0 NMat=1 NMatS=1 NMatT=0.
 ***** Axes restored to original set *****
 -------------------------------------------------------------------
 Center     Atomic                   Forces (Hartrees/Bohr)
 Number     Number              X              Y              Z
 -------------------------------------------------------------------
      1        8           0.011934028   -0.044046946    0.017295051
      2        7           0.007749422   -0.008064965    0.001034258
      3        8          -0.045718914    0.031473918    0.000141790
      4        8           0.024043861    0.020468321   -0.017311694
      5        6          -0.013997796    0.012097445   -0.002988759
      6        6           0.012533356   -0.013196694    0.009392160
      7        6           0.029698052    0.007519093    0.005866747
      8        8           0.012005293    0.009654595    0.012023335
      9        7          -0.011262689   -0.013161103    0.019400164
     10        8           0.039161614    0.042558253   -0.016978631
     11        8          -0.033709240   -0.021772751   -0.027363145
     12        8          -0.018298044   -0.030350448    0.007273245
     13        7          -0.004247979   -0.003580871   -0.027759108
     14        8           0.020824287   -0.026038702    0.048812239
     15        8          -0.005691209    0.049223999   -0.008743616
     16        8          -0.030472061   -0.001965312   -0.011427700
     17        7           0.035785752    0.117222474    0.050483910
     18        8          -0.014259088   -0.004259268   -0.000162037
     19        6           0.004291057   -0.080554589   -0.034609787
     20        8          -0.011757794   -0.051513777   -0.021592955
     21        1           0.005596857    0.000383560    0.006361276
     22        1           0.001164408   -0.006324957   -0.005861410
     23        1          -0.007809434    0.006162455   -0.002287004
     24        1          -0.007563740    0.008066273   -0.000998329
 -------------------------------------------------------------------
 Cartesian Forces:  Max     0.117222474 RMS     0.027388527

 GradGradGradGradGradGradGradGradGradGradGradGradGradGradGradGradGradGrad
 Berny optimization.
 Using GEDIIS/GDIIS optimizer.
 FormGI is forming the generalized inverse of G from B-inverse, IUseBI=4.
 Internal  Forces:  Max     0.142830757 RMS     0.022087081
 Search for a local minimum.
 Step number   2 out of a maximum of  111
 All quantities printed in internal units (Hartrees-Bohrs-Radians)
 Mixed Optimization -- RFO/linear search
 Update second derivatives using D2CorX and points    1    2
 DE= -8.34D-02 DEPred=-8.01D-02 R= 1.04D+00
 TightC=F SS=  1.41D+00  RLast= 3.06D-01 DXNew= 5.0454D-01 9.1924D-01
 Trust test= 1.04D+00 RLast= 3.06D-01 DXMaxT set to 5.05D-01
 ITU=  1  0
 Use linear search instead of GDIIS.
     Eigenvalues ---    0.00230   0.00357   0.00793   0.01056   0.01081
     Eigenvalues ---    0.01140   0.01203   0.01262   0.01278   0.01333
     Eigenvalues ---    0.02312   0.02880   0.02927   0.02935   0.03318
     Eigenvalues ---    0.04621   0.04659   0.04703   0.05561   0.05783
     Eigenvalues ---    0.06514   0.07939   0.08528   0.10656   0.10981
     Eigenvalues ---    0.12342   0.13454   0.18825   0.19634   0.21763
     Eigenvalues ---    0.21971   0.22785   0.24972   0.24999   0.24999
     Eigenvalues ---    0.25000   0.25000   0.25000   0.25000   0.25000
     Eigenvalues ---    0.25000   0.25000   0.25904   0.26909   0.29343
     Eigenvalues ---    0.31894   0.34079   0.34102   0.34135   0.34350
     Eigenvalues ---    0.38831   0.39295   0.40149   0.40723   0.41438
     Eigenvalues ---    0.42688   0.44399   0.45103   0.75536   0.90506
     Eigenvalues ---    0.91221   0.91551   0.91878   0.92137   0.92248
     Eigenvalues ---    1.19124
 RFO step:  Lambda=-2.25391904D-02 EMin= 2.29999630D-03
 Quartic linear search produced a step of  1.13410.
 Iteration  1 RMS(Cart)=  0.12688622 RMS(Int)=  0.02077972
 Iteration  2 RMS(Cart)=  0.03045468 RMS(Int)=  0.00035891
 Iteration  3 RMS(Cart)=  0.00038395 RMS(Int)=  0.00024131
 Iteration  4 RMS(Cart)=  0.00000026 RMS(Int)=  0.00024131
 Variable       Old X    -DE/DX   Delta X   Delta X   Delta X     New X
                                 (Linear)    (Quad)   (Total)
    R1        2.28093  -0.04873  -0.05316  -0.00502  -0.05817   2.22275
    R2        2.26936  -0.05545  -0.05854  -0.00807  -0.06662   2.20275
    R3        2.62648  -0.03785  -0.06037  -0.02430  -0.08466   2.54182
    R4        2.69210  -0.00164  -0.00537   0.00592   0.00056   2.69265
    R5        2.88954  -0.00202  -0.00387  -0.00197  -0.00584   2.88370
    R6        2.05683  -0.00765  -0.01633   0.00119  -0.01513   2.04170
    R7        2.05689  -0.00809  -0.01692   0.00025  -0.01667   2.04021
    R8        2.92331  -0.01438  -0.03055  -0.00932  -0.03987   2.88345
    R9        2.05971  -0.00648  -0.01402   0.00153  -0.01249   2.04721
   R10        2.05799  -0.00599  -0.01446   0.00565  -0.00881   2.04918
   R11        2.68012  -0.02011  -0.02791  -0.02651  -0.05442   2.62570
   R12        2.70039  -0.01855  -0.02717  -0.02284  -0.05001   2.65038
   R13        2.68607  -0.02976  -0.05297  -0.01322  -0.06619   2.61988
   R14        2.61581  -0.02660  -0.03917  -0.02105  -0.06022   2.55559
   R15        2.26475  -0.06026  -0.06155  -0.01242  -0.07397   2.19078
   R16        2.27681  -0.04855  -0.05228  -0.00540  -0.05768   2.21913
   R17        2.62529  -0.02501  -0.03793  -0.01819  -0.05611   2.56918
   R18        2.26597  -0.05904  -0.06048  -0.01190  -0.07238   2.19359
   R19        2.27401  -0.05031  -0.05288  -0.00772  -0.06060   2.21341
   R20        2.67823  -0.02306  -0.04430   0.00019  -0.04411   2.63412
   R21        2.40919   0.01461   0.00775   0.02340   0.03115   2.44034
   R22        2.58318  -0.14283  -0.23832  -0.15529  -0.39361   2.18957
   R23        2.17609  -0.05697  -0.05789   0.00769  -0.05020   2.12588
    A1        2.26322  -0.00394  -0.01104   0.00516  -0.00588   2.25734
    A2        2.05063   0.00225   0.01105  -0.01839  -0.00733   2.04329
    A3        1.96934   0.00169  -0.00001   0.01323   0.01322   1.98255
    A4        1.97842   0.00986   0.01612   0.02440   0.04052   2.01894
    A5        1.84952  -0.01245  -0.03427   0.00892  -0.02518   1.82434
    A6        1.91671   0.00214   0.00466  -0.00316   0.00175   1.91847
    A7        1.92169   0.00212   0.00492  -0.00556  -0.00044   1.92125
    A8        1.93299   0.00605   0.01767  -0.00185   0.01566   1.94865
    A9        1.92787   0.00524   0.01440   0.00140   0.01561   1.94347
   A10        1.91427  -0.00322  -0.00778   0.00035  -0.00779   1.90648
   A11        1.97913  -0.00048  -0.00613   0.01255   0.00647   1.98560
   A12        1.88252   0.00314   0.01050   0.00337   0.01384   1.89636
   A13        1.91278   0.00276   0.01153  -0.01204  -0.00064   1.91213
   A14        1.92623  -0.00372  -0.00946  -0.01140  -0.02089   1.90534
   A15        1.93348  -0.00462  -0.01440  -0.00511  -0.01953   1.91395
   A16        1.82256   0.00344   0.01022   0.01272   0.02254   1.84510
   A17        1.95176   0.00454   0.01759  -0.02517  -0.00729   1.94447
   A18        1.91836   0.01092   0.03448  -0.01154   0.02199   1.94035
   A19        1.82139   0.00005  -0.00260   0.03225   0.02895   1.85035
   A20        1.92873  -0.01218  -0.03410  -0.01840  -0.05262   1.87611
   A21        2.01360   0.00058   0.00640  -0.02724  -0.02089   1.99271
   A22        1.82273  -0.00298  -0.01946   0.05707   0.03627   1.85900
   A23        2.07201   0.00849   0.04681  -0.08584  -0.03902   2.03299
   A24        1.95142  -0.00213  -0.01822   0.04259   0.02436   1.97578
   A25        2.07761   0.00088   0.02771  -0.08311  -0.05542   2.02219
   A26        2.25409   0.00126  -0.00942   0.04036   0.03092   2.28501
   A27        2.06431   0.01385   0.05455  -0.06923  -0.01468   2.04963
   A28        1.95139  -0.00124  -0.01003   0.02321   0.01314   1.96453
   A29        2.07005   0.00030   0.01833  -0.05694  -0.03866   2.03140
   A30        2.25967   0.00108  -0.00783   0.03418   0.02632   2.28599
   A31        1.96966   0.01620   0.01428   0.07978   0.09405   2.06371
   A32        2.14486   0.01363   0.04283  -0.03299   0.00980   2.15465
   A33        2.02265  -0.02364  -0.06443   0.02505  -0.03942   1.98324
   A34        2.11557   0.00999   0.02156   0.00774   0.02925   2.14482
   A35        3.15779   0.00723   0.04065  -0.12047  -0.07982   3.07797
   A36        3.13406  -0.00237  -0.01462   0.05055   0.03593   3.17000
    D1       -3.14138  -0.00010  -0.00037  -0.00033  -0.00069   3.14111
    D2       -0.00392   0.00015   0.00048   0.00155   0.00204  -0.00188
    D3        3.13785   0.00006   0.00017   0.00127   0.00144   3.13929
    D4       -3.13003   0.00039   0.00144  -0.00010   0.00132  -3.12871
    D5        1.06464  -0.00076  -0.00228  -0.00137  -0.00372   1.06092
    D6       -1.04496   0.00052   0.00126   0.00377   0.00511  -1.03985
    D7        3.12175   0.00035   0.00136   0.00277   0.00416   3.12591
    D8        0.98315   0.00314   0.00985   0.00660   0.01654   0.99969
    D9       -0.99101  -0.00393  -0.01307  -0.00405  -0.01720  -1.00821
   D10       -1.08362  -0.00122  -0.00359   0.00327  -0.00047  -1.08408
   D11        3.06097   0.00158   0.00491   0.00711   0.01192   3.07288
   D12        1.08681  -0.00549  -0.01802  -0.00354  -0.02182   1.06498
   D13        1.04075   0.00232   0.00771   0.00342   0.01132   1.05206
   D14       -1.09786   0.00512   0.01621   0.00726   0.02370  -1.07416
   D15       -3.07202  -0.00196  -0.00671  -0.00340  -0.01004  -3.08206
   D16        3.01781  -0.00307  -0.00878  -0.01041  -0.01908   2.99874
   D17        0.86884   0.00158  -0.00138   0.03888   0.03766   0.90650
   D18       -1.07711   0.00039   0.00768  -0.03733  -0.02982  -1.10693
   D19       -1.15117  -0.00206  -0.00642  -0.00565  -0.01205  -1.16321
   D20        2.98304   0.00259   0.00098   0.04364   0.04469   3.02774
   D21        1.03710   0.00140   0.01004  -0.03257  -0.02279   1.01431
   D22        0.85866  -0.00279  -0.00819   0.00010  -0.00800   0.85067
   D23       -1.29031   0.00186  -0.00079   0.04938   0.04874  -1.24157
   D24        3.04692   0.00067   0.00827  -0.02682  -0.01874   3.02819
   D25        1.18308  -0.00157  -0.01008   0.07278   0.06262   1.24570
   D26       -2.95702   0.00693   0.02258   0.02705   0.04936  -2.90766
   D27       -0.89474  -0.00553  -0.02439   0.06908   0.04505  -0.84969
   D28        1.34821  -0.00090   0.00481  -0.09720  -0.09287   1.25534
   D29       -0.81422  -0.00588  -0.01857  -0.04457  -0.06282  -0.87704
   D30       -2.98990   0.00227   0.00714  -0.03718  -0.02988  -3.01978
   D31        3.10417   0.00282   0.00336   0.06872   0.07260  -3.10642
   D32       -1.03046   0.00897   0.02752   0.04375   0.07139  -0.95907
   D33        1.09006  -0.00810  -0.02600   0.04526   0.01861   1.10867
   D34       -3.01628  -0.00094  -0.00427   0.00773   0.00367  -3.01261
   D35        0.13624  -0.00188  -0.00887   0.02077   0.01170   0.14794
   D36       -3.12928  -0.00105  -0.00558   0.01567   0.01026  -3.11902
   D37        3.02791  -0.00298  -0.00984  -0.02240  -0.03206   2.99585
   D38       -0.17625  -0.00094  -0.00351  -0.01399  -0.01767  -0.19392
   D39        3.07043   0.00227   0.00848   0.00536   0.01400   3.08443
   D40        0.19735   0.00374   0.01151   0.06064   0.07190   0.26925
   D41       -2.95962   0.00289   0.00913   0.04570   0.05509  -2.90453
   D42        3.12543  -0.00118  -0.00313  -0.01559  -0.01895   3.10648
         Item               Value     Threshold  Converged?
 Maximum Force            0.142831     0.000450     NO 
 RMS     Force            0.022087     0.000300     NO 
 Maximum Displacement     0.518479     0.001800     NO 
 RMS     Displacement     0.134503     0.001200     NO 
 Predicted change in Energy=-6.596763D-02
 GradGradGradGradGradGradGradGradGradGradGradGradGradGradGradGradGradGrad

                          Input orientation:                          
 ---------------------------------------------------------------------
 Center     Atomic      Atomic             Coordinates (Angstroms)
 Number     Number       Type             X           Y           Z
 ---------------------------------------------------------------------
      1          8           0        3.657997    0.934548   -1.842603
      2          7           0        3.820091   -0.136712   -1.384730
      3          8           0        4.778080   -0.800756   -1.379439
      4          8           0        2.767220   -0.705789   -0.770857
      5          6           0        1.572106    0.069795   -0.748846
      6          6           0        0.569182   -0.793961    0.010570
      7          6           0       -0.800653   -0.142911    0.177654
[...]
 0027206,0.42655108,0.00049515,0.00065037,-0.00049971,-0.00163110,-0.00
 098375,0.00111672,0.00079024,0.00004425,-0.00026256,0.00164527,0.00102
 057,-0.00075314,-0.00188745,-0.00259070,0.00037215,0.00358678,-0.02453
 872,-0.02210935,-0.02760280,-0.16504770,-0.07755600,-0.03567747,-0.049
 33959,-0.01277430,0.00458345,0.00867071,-0.01822251,-0.00447562,-0.003
 12797,0.00498508,0.00032521,-0.00554210,0.00537567,-0.00663848,0.00329
 514,-0.01583412,0.00476448,0.00247462,0.00489726,-0.00289524,0.0008587
 3,-0.00300626,-0.00082102,0.00179836,-0.00031766,-0.06843424,0.3737607
 3,0.00054127,0.00010936,-0.00015491,-0.00201421,-0.00015383,0.00062636
 ,0.00096545,-0.00022634,-0.00010379,0.00168608,-0.00015610,-0.00030314
 ,-0.00140323,0.00039460,-0.00035672,0.00118465,-0.01681790,-0.00818155
 ,-0.02213197,-0.08051891,-0.13267509,-0.00686826,-0.00721146,0.0148028
 4,-0.00511086,-0.00004933,-0.00978271,0.00024754,-0.00083833,0.0021575
 9,0.00369117,0.00408674,0.00313278,-0.03209234,-0.04536470,-0.07812851
 ,0.00643049,0.01741362,0.01148442,-0.00701252,-0.00013217,-0.00924324,
 0.00031237,-0.00630186,-0.00250113,-0.02414088,0.16913900,0.28844015,0
 .00035776,-0.00005191,-0.00011640,-0.00135087,0.00007384,0.00043864,0.
 00069936,-0.00021483,-0.00008117,0.00104839,-0.00011098,-0.00039759,-0
 .00079262,0.00031837,0.00025950,0.00129044,-0.00304561,-0.00175930,0.0
 1671955,0.02750586,0.01689322,-0.00497486,-0.00536700,0.00324771,0.005
 33108,-0.00029689,-0.00528179,-0.00312282,-0.00122489,0.00171949,-0.00
 122272,-0.00052226,0.00150397,-0.00339875,-0.00312886,-0.00811389,0.00
 371044,0.00227888,0.00385107,-0.00161634,0.00012522,-0.00184099,-0.000
 35150,-0.00194227,-0.00106542,-0.22221545,0.09299444,0.05244770,0.3649
 5595,0.00013429,0.00020376,-0.00015560,-0.00037043,-0.00025871,0.00031
 981,0.00020332,0.00001237,-0.00008222,0.00045467,0.00050601,-0.0001821
 5,-0.00043367,-0.00126753,0.00030184,-0.00504821,-0.00606147,-0.006388
 95,0.04654981,-0.03043037,-0.01983687,0.00216248,0.00561851,0.00233421
 ,-0.00532106,-0.00711316,0.00387342,0.00263259,0.00056922,-0.00146622,
 0.00130476,0.00168052,0.00002041,0.00237109,0.00045249,0.00097910,0.00
 075344,0.00021536,0.00198396,-0.00003011,0.00016988,-0.00033775,-0.000
 39901,-0.00010070,-0.00029995,0.07233732,-0.13419872,-0.02067194,-0.22
 452864,0.89362375,-0.00036424,0.00004430,0.00013448,0.00138135,-0.0000
 7486,-0.00048908,-0.00070682,0.00021609,0.00008797,-0.00105706,0.00013
 974,0.00045884,0.00066948,-0.00030963,-0.00033788,-0.00086834,0.000420
 15,0.00109061,0.01476839,-0.01955954,-0.01639164,0.00492142,0.00398794
 ,-0.00287282,-0.00128770,0.00238722,0.00540521,0.00151230,0.00038490,-
 0.00126535,-0.00007280,-0.00080557,-0.00201951,0.00566453,-0.00075182,
 0.00180021,-0.00220167,-0.00259165,-0.00267123,0.00132260,0.00015711,0
 .00164220,0.00021555,0.00161989,0.00081768,0.03702067,-0.01504511,-0.0
 6564433,-0.10382643,-0.35845795,0.41560505,-0.00017057,0.00002461,0.00
 008765,0.00067193,-0.00005139,-0.00027900,-0.00032671,0.00010498,0.000
 05517,-0.00047213,0.00010319,0.00023544,0.00045833,-0.00030563,-0.0002
 8617,0.00087016,0.00129924,0.00042007,-0.00697952,-0.00602698,-0.00351
 337,0.00367771,0.00085222,-0.00042176,-0.00848188,-0.00082402,-0.00109
 783,0.00353010,0.00054658,-0.00078833,0.00278432,0.00221018,0.00199408
 ,0.00112830,0.00071322,0.00176724,-0.00130626,-0.00012501,-0.00087183,
 0.00059178,-0.00012333,0.00049902,0.00024929,0.00028825,0.00027838,-0.
 02362377,-0.00543902,0.03783814,-0.08740029,-0.03503415,0.09051902,0.1
 1960310,0.00010902,0.00025525,-0.00017308,-0.00037696,-0.00041969,0.00
 036497,0.00013934,0.00007557,-0.00008954,0.00037291,0.00020007,-0.0002
 5671,-0.00019778,-0.00025207,0.00014079,0.00099571,0.00187210,0.000839
 25,-0.00901844,-0.00270766,0.00411626,0.00518582,-0.00469610,-0.006588
 89,0.00070287,0.00432579,0.00184392,0.00099661,-0.00078286,-0.00087268
 ,-0.00042934,-0.00330183,-0.00258643,0.00014010,0.00068861,-0.00144645
 ,0.00063491,-0.00136736,0.00134607,-0.00061311,0.00060045,-0.00065931,
 -0.00020528,0.00102359,-0.00035604,0.00479573,0.02546750,-0.01372736,-
 0.03274897,-0.11534696,0.10259607,0.04835827,0.10879498,0.00018745,-0.
 00013169,0.00002953,-0.00068112,0.00021882,0.00005347,0.00038578,-0.00
 016369,0.00000641,0.00051075,-0.00009513,-0.00009300,-0.00051180,0.000
 21237,0.00017692,-0.00089066,-0.00141197,-0.00091099,0.00605609,0.0031
 1405,-0.00148230,-0.00035887,-0.00674777,-0.00125705,-0.00195747,0.000
 89388,-0.00693201,-0.00003792,-0.00001776,0.00117480,0.00112858,0.0007
 2292,0.00264672,-0.00028971,-0.00113058,-0.00058153,0.00010434,0.00129
 787,0.00072337,0.00012075,-0.00040474,-0.00008274,0.00011125,-0.000929
 06,-0.00027437,0.02059561,-0.00753981,-0.00972238,0.09305122,0.1097228
 4,-0.17065855,-0.13347222,-0.10991423,0.21319937,0.00022999,0.00000405
 ,-0.00018406,-0.00091844,-0.00001663,0.00049157,0.00043031,-0.00011039
 ,-0.00010383,0.00067822,-0.00018490,-0.00039404,-0.00032403,0.00058346
 ,0.00033599,-0.00005039,0.00063519,0.00023099,-0.00135632,0.00194985,0
 .00077854,-0.00022396,-0.00055971,-0.00037847,0.00062476,0.00244626,0.
 00082830,-0.00035199,-0.00064551,-0.00009418,-0.00054380,-0.00060146,-
 0.00060486,-0.00092912,-0.00064626,-0.00224186,0.00316006,-0.00138002,
 0.00347082,-0.00162197,0.00104710,-0.00137053,-0.00070709,0.00047592,-
 0.00084180,-0.03102241,0.04334430,-0.01364661,-0.08335621,0.13395175,-
 0.03316844,-0.01436951,-0.02645374,0.02305661,0.25583188,-0.00093650,-
 0.00130675,0.00111178,0.00346395,0.00206650,-0.00259760,-0.00145684,-0
 .00014418,0.00058850,-0.00327651,-0.00078474,0.00183492,0.00253197,0.0
 0096722,-0.00150353,0.00263720,0.00070468,0.00156600,0.00234923,-0.018
 90010,-0.01688750,0.00049185,0.00762478,-0.00003657,-0.00240136,-0.010
 92098,0.00513479,0.00187635,0.00273417,-0.00135667,0.00043965,0.002692
 38,-0.00056800,0.00349555,0.00198948,0.01236581,-0.00823245,-0.0004242
 1,-0.01350544,0.00449556,-0.00248746,0.00589059,0.00179121,0.00002112,
 0.00301828,0.00393493,-0.02684742,0.00847257,0.12257943,-0.56088371,0.
 28783992,0.01784548,-0.00391682,-0.02534533,-0.39705634,1.61524497,0.0
 0024541,0.00069892,-0.00059259,-0.00095866,-0.00108986,0.00122353,0.00
 034463,0.00019244,-0.00029252,0.00107597,0.00054899,-0.00092459,-0.000
 73138,-0.00093062,0.00100366,-0.00225390,-0.00179385,-0.00291192,0.010
 25406,0.00182683,0.01604874,-0.00098318,-0.00218349,-0.00095585,0.0020
 2537,0.00448223,-0.00094130,-0.00106155,-0.00111820,0.00033153,-0.0008
 3457,-0.00118038,-0.00039479,-0.00059726,-0.00115656,-0.00594443,0.003
 49901,-0.00350959,0.00280833,-0.00246565,0.00221151,-0.00231696,-0.001
 34937,0.00282310,-0.00039735,-0.00342028,-0.01670588,-0.01162689,-0.01
 579600,0.26105459,-0.18183721,-0.00933978,0.01884013,-0.01389420,0.120
 71691,-0.70101211,0.45987948,-0.00015314,-0.00006772,0.00012906,0.0005
 7849,0.00010870,-0.00032656,-0.00027323,0.00004568,0.00007205,-0.00046
 858,-0.00001427,0.00025890,0.00030684,-0.00005606,-0.00023255,0.000305
 42,0.00018668,0.00036922,-0.00136433,-0.00140814,-0.00221647,0.0001029
 7,0.00060130,0.00005254,-0.00027147,-0.00165513,-0.00002005,0.00018423
 ,0.00039562,-0.00002480,0.00021572,0.00040116,0.00018960,0.00059781,0.
 00050874,0.00162289,-0.00164041,0.00048551,-0.00202656,0.00088322,-0.0
 0052974,0.00086819,0.00038951,-0.00027225,0.00045936,0.00370110,-0.000
 40570,0.00715843,0.01516173,0.00577913,-0.01515904,0.00976520,0.008160
 29,-0.00736116,-0.12498789,0.24627289,-0.09935034,0.09706819,0.0005674
 0,0.00080590,-0.00070080,-0.00210166,-0.00127105,0.00162013,0.00088402
 ,0.00009290,-0.00036740,0.00198607,0.00048781,-0.00117125,-0.00149928,
 -0.00062095,0.00101427,-0.00176652,-0.00097123,-0.00164924,0.00325011,
 0.01105296,0.01514366,-0.00078457,-0.00400825,-0.00047039,0.00155676,0
 .00656966,-0.00189461,-0.00105147,-0.00159108,0.00056366,-0.00060312,-
 0.00169305,-0.00009512,-0.00286716,-0.00064171,-0.00721137,0.00457138,
 -0.00068366,0.00682057,-0.00279063,0.00164228,-0.00340626,-0.00111248,
 0.00075706,-0.00149734,0.01255931,-0.00515602,-0.00692877,0.02852302,-
 0.04843702,-0.00240017,-0.02467861,-0.01056541,0.03786173,0.24342299,-
 1.00767352,0.43804186,-0.25861578,1.06208302,-0.00019682,-0.00043307,0
 .00035995,0.00074538,0.00068206,-0.00076907,-0.00028732,-0.00010096,0.
 00018002,-0.00079042,-0.00030465,0.00055961,0.00057217,0.00047632,-0.0
 0054604,0.00118338,0.00085811,0.00137461,-0.00451926,-0.00385555,-0.00
 851596,0.00046691,0.00152653,0.00030705,-0.00068987,-0.00284349,0.0007
 3619,0.00044600,0.00068282,-0.00020012,0.00029982,0.00072708,0.0000872
 2,0.00114288,-0.00005835,0.00348989,-0.00252601,0.00142692,-0.00296576
 ,0.00155163,-0.00121380,0.00169293,0.00076085,-0.00105489,0.00058400,0
 .00236323,0.00722564,0.00864585,-0.03473136,0.02812259,0.01572617,0.01
 632836,0.00623819,-0.01185781,-0.09719965,0.43487676,-0.25803278,0.115
 56544,-0.47305475,0.24902726,-0.00080844,-0.00321508,0.00294810,0.0045
 9373,0.00563512,-0.00900742,-0.00106450,-0.00037951,0.00192950,-0.0306
 5603,0.00948531,-0.03282337,-0.08224736,-0.00301341,-0.07549637,0.0109
 4802,0.00058417,0.02479557,0.00194082,-0.00079643,0.00108123,0.0000027
 9,0.00020394,-0.00043337,0.00110948,-0.00001258,0.00057299,-0.00040414
 ,-0.00013945,-0.00008150,-0.00098659,-0.00007494,0.00010420,-0.0017683
 0,0.00036121,-0.00068806,-0.00215011,0.00150175,0.00069865,0.00005664,
 -0.00035423,0.00002654,0.00033466,-0.00074009,-0.00034052,-0.00015916,
 0.00031482,-0.00016680,0.00000162,-0.00003125,0.00000394,-0.00004033,0
 .00007283,-0.00000984,0.00002379,-0.00023066,0.00018846,-0.00003128,0.
 00017044,-0.00009582,0.10253274,0.00005268,0.00034365,-0.00060733,-0.0
 0237106,0.00016546,0.00132565,0.00050748,-0.00037148,-0.00056575,0.016
 61342,-0.00302477,0.02296982,-0.00301987,-0.06668803,-0.00835274,0.005
 21535,0.00123462,0.01934998,0.00064367,-0.00082408,0.00033970,0.000000
 55,0.00012459,-0.00019466,0.00058471,-0.00006817,0.00036342,-0.0002087
 4,-0.00006966,-0.00005010,-0.00055680,-0.00003249,0.00009348,-0.000006
 84,-0.00014973,-0.00075812,-0.00087673,0.00303272,0.00019729,0.0004110
 9,-0.00083804,0.00045813,0.00072886,-0.00140328,-0.00043710,0.00026568
 ,0.00008702,-0.00024767,-0.00004947,0.00014611,0.00007538,0.00005384,0
 .00001232,-0.00002929,-0.00008981,0.00018220,-0.00012030,0.00002511,-0
 .00010978,0.00006277,-0.00586391,0.06513495,0.00306429,-0.00092729,0.0
 0142331,-0.00037450,0.00305114,-0.00150399,0.00044928,-0.00132044,0.00
 013069,-0.00262739,0.00323762,0.00673786,-0.08562091,-0.00326098,-0.34
 765482,-0.00475392,-0.00094529,-0.01597571,-0.00120768,0.00156858,-0.0
 0259421,0.00037925,-0.00034217,0.00038404,-0.00094616,0.00002708,-0.00
 050305,0.00031528,0.00009908,0.00008331,0.00075424,0.00001851,0.000017
 66,-0.00120541,-0.00081048,0.00155550,0.00170879,-0.00099791,0.0010460
 1,-0.00028254,0.00049612,-0.00046691,-0.00120360,0.00034395,0.00025658
 ,0.00025617,-0.00017137,0.00022255,0.00002604,0.00007078,0.00001857,0.
 00005144,-0.00006329,0.00004089,-0.00005274,0.00023055,-0.00028297,0.0
 0003381,-0.00019031,0.00012793,0.09103400,-0.00241432,0.36524293,-0.00
 182550,-0.00213923,0.00246433,0.00620321,0.00623678,-0.00334130,-0.001
 86120,-0.00104678,-0.00017344,-0.01175051,0.04497888,0.01438866,-0.069
 96299,-0.05527371,-0.02076578,-0.00183162,-0.02245386,-0.01010794,0.00
 061464,-0.00210093,-0.00088377,0.00004515,0.00048009,0.00012002,0.0005
 5582,-0.00010389,-0.00011076,-0.00015799,-0.00005605,0.00000790,-0.000
 26412,0.00012526,0.00006048,0.00015477,0.00065134,0.00025569,0.0005695
 4,-0.00155539,-0.00042458,-0.00021514,0.00040319,-0.00008798,-0.000578
 83,0.00080370,0.00009910,-0.00057525,0.00043253,0.00039672,-0.00021081
 ,0.00041053,0.00026673,0.00015604,0.00008655,-0.00011340,-0.00023086,0
 .00006251,0.00011750,0.00005085,-0.00004645,-0.00003227,0.00163562,-0.
 01061957,-0.00223377,0.08137428,-0.00160688,0.00345034,-0.00010325,-0.
 00227735,-0.00486453,0.00351058,0.00013122,0.00116197,-0.00081588,0.01
 193931,-0.01855093,-0.00425351,-0.04447944,-0.32107894,-0.09593180,-0.
 00390734,-0.01255697,-0.00547669,-0.00019185,-0.00196519,-0.00014810,-
 0.00022987,0.00039167,0.00013470,0.00021650,-0.00010041,-0.00007649,-0
 .00004216,-0.00001329,-0.00000567,-0.00011362,0.00008770,0.00005954,0.
 00011175,0.00052999,0.00020762,0.00002494,-0.00060005,-0.00040282,-0.0
 0001771,0.00013673,0.00004357,-0.00007308,0.00036971,0.00006344,0.0010
 4883,0.00027319,-0.00064513,-0.00013973,0.00048530,0.00018689,0.000138
 05,-0.00002571,-0.00004041,-0.00010531,0.00044659,-0.00017407,0.000043
 77,-0.00028073,0.00011407,-0.00128781,0.00359365,0.00062432,0.04173924
 ,0.34887856,-0.00030798,0.00142478,-0.00065843,-0.00003538,-0.00379487
 ,0.00194093,-0.00018291,0.00061701,-0.00055017,0.00297645,0.00650336,0
 .00410297,-0.01872345,-0.09667620,-0.10420876,0.00303529,0.02292666,0.
 01044472,-0.00039085,0.00021119,0.00117483,-0.00013808,-0.00025569,-0.
 00012252,-0.00021559,0.00010524,0.00008682,0.00003324,0.00001285,0.000
 00298,0.00006974,-0.00011892,-0.00003528,0.00044909,0.00002115,0.00014
 365,0.00052426,-0.00104978,-0.00039870,-0.00009737,0.00023817,-0.00007
 233,-0.00054352,0.00036495,0.00035929,0.00072579,0.00008563,-0.0003830
 4,0.00002513,-0.00010735,-0.00020994,-0.00006709,-0.00001265,0.0000025
 4,0.00007487,-0.00043314,0.00028877,-0.00002693,0.00027203,-0.00014599
 ,-0.00555609,-0.03338420,-0.00908718,0.01599347,0.10102105,0.09910216,
 -0.00071896,0.00046792,-0.00045070,0.00030256,-0.00113445,0.00089168,-
 0.00002437,0.00026196,-0.00021576,0.00154082,0.00015541,-0.00005765,0.
 01201384,-0.00211180,0.02607046,-0.11460459,0.01482172,-0.11363172,-0.
 01073168,0.00287472,-0.03424632,-0.00043831,-0.00182985,0.00372377,-0.
 00590874,0.00074750,-0.00380199,0.00190923,0.00045588,0.00063055,0.002
 08313,-0.00084805,0.00293905,-0.00682122,0.00456910,-0.00176199,0.0012
 0682,0.00125172,0.00262062,-0.00043501,-0.00007359,-0.00092940,-0.0003
 5348,-0.00057327,-0.00087135,0.00146602,-0.00169407,-0.00061260,0.0000
 9682,-0.00058574,0.00055173,0.00010089,-0.00011999,-0.00002671,0.00005
 225,0.00057667,-0.00065485,0.00006581,-0.00053147,0.00031592,-0.003945
 04,-0.00249552,0.00261783,0.00079992,0.00044186,-0.00100226,0.12382352
 ,-0.00030998,0.00009379,-0.00014872,0.00000278,-0.00050200,0.00026136,
 0.00015016,0.00002248,-0.00003836,0.00136969,0.00074327,-0.00176136,0.
 00924029,-0.00167944,0.02088646,0.01218028,-0.06469497,0.02428250,0.00
 768549,-0.00335724,0.01748210,-0.00026369,-0.00013668,-0.00020339,-0.0
 0102192,0.00039209,-0.00061875,0.00050345,0.00027483,0.00004381,-0.000
 79545,-0.00095629,0.00148506,0.00534333,-0.00241526,0.00191309,0.00007
 931,-0.00344713,-0.00186972,-0.00016271,0.00079722,0.00029065,-0.00163
 023,0.00178756,-0.00072503,0.00005625,0.00020175,0.00091862,-0.0001275
 8,0.00064338,-0.00047417,-0.00018620,-0.00016087,0.00013669,0.00003448
 ,-0.00065248,0.00061715,-0.00007009,0.00048298,-0.00028062,-0.00280328
 ,-0.00132255,0.00174187,0.00083784,0.00036503,-0.00038394,-0.01511894,
 0.06556110,0.00011088,-0.00073446,0.00053499,0.00094635,0.00093899,-0.
 00055390,-0.00026636,-0.00013473,0.00011874,-0.00169231,-0.00060176,0.
 00141112,-0.00728193,0.00227409,-0.01960350,-0.11939843,0.02847350,-0.
 31420799,0.00049886,0.00005930,0.00670373,-0.00077691,0.00080078,-0.00
 049652,0.00010315,-0.00027248,-0.00016077,-0.00018334,0.00002536,0.000
 05990,0.00515505,0.00184764,-0.00431514,0.00260870,-0.00236518,0.00158
 415,-0.00006301,-0.00101495,-0.00094984,0.00002945,0.00021518,0.000225
 02,-0.00047839,0.00058366,0.00004561,0.00131694,-0.00120474,-0.0001153
 7,-0.00017085,-0.00010274,0.00067452,-0.00000977,0.00012340,-0.0001523
 2,0.00012494,0.00005067,0.00004733,-0.00002585,-0.00006771,0.00000041,
 0.00249787,0.00215687,-0.00026878,0.00001780,0.00002009,0.00101890,0.1
 2147480,-0.03299278,0.33798135,-0.00045515,0.00079710,-0.00018678,0.00
 020063,-0.00097774,0.00080672,-0.00016251,0.00028821,-0.00014086,0.001
 52127,0.00018000,-0.00070390,-0.00338830,-0.02329773,-0.01054749,-0.07
 195187,-0.04947754,-0.02198378,0.00962429,0.03152519,0.01599902,0.0027
 0730,-0.00052996,-0.00153214,-0.00010838,0.00004948,0.00172717,0.00005
 021,0.00004715,-0.00019275,-0.00028569,0.00013984,-0.00018613,-0.00046
 855,-0.00178498,-0.00208766,-0.00121822,0.00343658,0.00065831,0.000436
 88,-0.00086171,0.00005688,-0.00147572,-0.00129376,-0.00218170,-0.00733
 387,0.00432554,0.00230028,0.00064009,0.00273710,-0.00010517,-0.0004161
 9,-0.00058735,0.00040245,-0.00003726,-0.00125375,0.00132945,-0.0001867
 5,0.00095772,-0.00067316,0.00108137,0.00105587,-0.00018181,-0.00269503
 ,-0.00136333,0.00338016,-0.00148022,-0.01499327,-0.00453765,0.07540169
 ,-0.00012234,0.00041989,-0.00016375,-0.00026634,-0.00035682,0.00060915
 ,-0.00005630,0.00007244,-0.00008713,0.00091315,0.00125030,-0.00030254,
 -0.00346711,-0.01755897,-0.00710342,-0.04264526,-0.31063087,-0.1080419
 4,-0.00507220,-0.01499776,-0.00752732,-0.00156047,0.00146933,0.0016324
 3,0.00074827,0.00074309,-0.00097868,-0.00034150,-0.00034753,0.00014218
 ,-0.00005205,0.00008655,0.00014698,0.00121544,0.00073330,0.00166477,0.
 00148690,-0.00460631,-0.00065840,-0.00063512,0.00127935,-0.00032277,-0
 .00289803,0.00287014,-0.00160346,0.00322681,-0.00123025,-0.00054269,-0
 .00089916,-0.00022832,0.00041487,0.00025622,0.00022709,-0.00027971,-0.
 00004527,0.00026826,-0.00036287,0.00008031,-0.00027114,0.00018026,0.00
 061305,0.00084477,-0.00006576,-0.00185258,-0.00013369,0.00241267,0.000
 49229,0.00795941,0.00192200,0.05088132,0.33213775,0.00042845,-0.000386
 59,-0.00024525,-0.00047889,0.00068918,-0.00025769,0.00011720,-0.000127
 40,0.00007289,-0.00148603,-0.00077098,0.00053161,0.00417466,0.02629224
 ,0.01201266,-0.01890771,-0.11276198,-0.10868113,-0.00140644,-0.0024145
 6,-0.00264314,0.00001915,0.00061374,-0.00013968,0.00188759,-0.00064362
 ,-0.00000988,-0.00033059,-0.00014115,-0.00009317,-0.00098446,0.0007091
 4,0.00020212,0.00017748,-0.00056145,-0.00063361,-0.00090568,0.00173042
 ,0.00025206,0.00040907,-0.00062249,0.00037361,-0.00217691,-0.00025561,
 -0.00294757,0.00159799,-0.00119463,-0.00058976,-0.00028251,-0.00069386
 ,0.00093600,0.00007314,0.00029761,-0.00015477,0.00017153,0.00026477,-0
 .00028501,-0.00000916,-0.00023243,0.00013443,-0.00118190,-0.00023091,0
 .00104980,0.00408657,0.00208798,-0.00279619,-0.00357308,-0.03056252,-0
 .00958163,0.01858053,0.11891510,0.11349328||0.00000149,0.00000022,0.00
 000065,-0.00000369,-0.00000343,0.00000088,0.00000165,0.00000197,-0.000
 00029,0.00000187,-0.00000013,-0.00000037,-0.00000315,0.00000484,-0.000
 00117,0.00000284,0.00000461,-0.00000082,0.00000116,-0.00000644,-0.0000
 0214,-0.00000416,0.00000323,0.00000980,0.00000214,-0.00001790,-0.00000
 426,-0.00000903,0.00000588,-0.00000509,0.00000922,0.00001315,-0.000002
 57,-0.00001546,0.00000174,-0.00000950,0.00002324,0.00001448,0.00001406
 ,-0.00000604,0.00000088,0.00000034,-0.00000365,-0.00000784,0.00000509,
 -0.00000992,-0.00000876,-0.00000337,0.00001865,-0.00005247,0.00001797,
 -0.00000132,0.00000141,-0.00000039,-0.00000349,0.00004398,0.00000036,-
 0.00000531,0.00000566,-0.00001963,0.00000239,-0.00000045,0.00000214,0.
 00000078,0.00000104,-0.00000046,0.00000086,-0.00000188,-0.00000197,-0.
 00000107,-0.00000380,0.00000074|||@
 The archive entry for this job was punched.


 KNOWLEDGE IS CHIMERA - FOR BEYOND IT LIES OTHER KNOWLEDGE,
 AND THE INCOMPLETENESS OF WHAT IS KNOWN RENDERS THE KNOWING FALSE.
     -- THE THOMAS COVENANT CHRONICLES
 Job cpu time:       0 days  0 hours  1 minutes 40.0 seconds.
 Elapsed time:       0 days  0 hours  1 minutes 38.8 seconds.
 File lengths (MBytes):  RWF=    286 Int=      0 D2E=      0 Chk=      9 Scr=      1
 Normal termination of Gaussian 16 at Tue Jun 11 18:15:23 2024.
