 Entering Link 1 = C:\G16W\l1.exe PID=     11516.
  
 Copyright (c) 1988-2019, Gaussian, Inc.  All Rights Reserved.
  
 This is part of the Gaussian(R) 16 program.  It is based on
 the Gaussian(R) 09 system (copyright 2009, Gaussian, Inc.),
 the Gaussian(R) 03 system (copyright 2003, Gaussian, Inc.),
 the Gaussian(R) 98 system (copyright 1998, Gaussian, Inc.),
 the Gaussian(R) 94 system (copyright 1995, Gaussian, Inc.),
 the Gaussian 92(TM) system (copyright 1992, Gaussian, Inc.),
 the Gaussian 90(TM) system (copyright 1990, Gaussian, Inc.),
 the Gaussian 88(TM) system (copyright 1988, Gaussian, Inc.),
 the Gaussian 86(TM) system (copyright 1986, Carnegie Mellon
 University), and the Gaussian 82(TM) system (copyright 1983,
 Carnegie Mellon University). Gaussian is a federally registered
 trademark of Gaussian, Inc.
  
 This software contains proprietary and confidential information,
 including trade secrets, belonging to Gaussian, Inc.
  
 This software is provided under written license and may be
 used, copied, transmitted, or stored only in accord with that
 written license.
  
 The following legend is applicable only to US Government
 contracts under FAR:
  
                    RESTRICTED RIGHTS LEGEND
  
 Use, reproduction and disclosure by the US Government is
 subject to restrictions as set forth in subparagraphs (a)
 and (c) of the Commercial Computer Software - Restricted
 Rights clause in FAR 52.227-19.
  
 Gaussian, Inc.
 340 Quinnipiac St., Bldg. 40, Wallingford CT 06492
  
  
 ---------------------------------------------------------------
 Warning -- This program may not be used in any manner that
 competes with the business of Gaussian, Inc. or will provide
 assistance to any competitor of Gaussian, Inc.  The licensee
 of this program is prohibited from giving any competitor of
 Gaussian, Inc. access to this program.  By using this program,
 the user acknowledges that Gaussian, Inc. is engaged in the
 business of creating and licensing software in the field of
 computational chemistry and represents and warrants to the
 licensee that it is not a competitor of Gaussian, Inc. and that
 it will not use this program in any manner prohibited above.
 ---------------------------------------------------------------
  

 Cite this work as:
 Gaussian 16, Revision C.01,
 M. J. Frisch, G. W. Trucks, H. B. Schlegel, G. E. Scuseria, 
 M. A. Robb, J. R. Cheeseman, G. Scalmani, V. Barone, 
 G. A. Petersson, H. Nakatsuji, X. Li, M. Caricato, A. V. Marenich, 
 J. Bloino, B. G. Janesko, R. Gomperts, B. Mennucci, H. P. Hratchian, 
 J. V. Ortiz, A. F. Izmaylov, J. L. Sonnenberg, D. Williams-Young, 
 F. Ding, F. Lipparini, F. Egidi, J. Goings, B. Peng, A. Petrone, 
 T. Henderson, D. Ranasinghe, V. G. Zakrzewski, J. Gao, N. Rega, 
 G. Zheng, W. Liang, M. Hada, M. Ehara, K. Toyota, R. Fukuda, 
 J. Hasegawa, M. Ishida, T. Nakajima, Y. Honda, O. Kitao, H. Nakai, 
 T. Vreven, K. Throssell, J. A. Montgomery, Jr., J. E. Peralta, 
 F. Ogliaro, M. J. Bearpark, J. J. Heyd, E. N. Brothers, K. N. Kudin, 
 V. N. Staroverov, T. A. Keith, R. Kobayashi, J. Normand, 
 K. Raghavachari, A. P. Rendell, J. C. Burant, S. S. Iyengar, 
 J. Tomasi, M. Cossi, J. M. Millam, M. Klene, C. Adamo, R. Cammi, 
 J. W. Ochterski, R. L. Martin, K. Morokuma, O. Farkas, 
 J. B. Foresman, and D. J. Fox, Gaussian, Inc., Wallingford CT, 2019.
 
 ******************************************
 Gaussian 16:  EM64W-G16RevC.01 30-May-2019
                11-Jun-2024 
 ******************************************
 %nprocshared=24
 Will use up to   24 processors via shared memory.
 %mem=120GB
 ----------------------
 # HF/6-31G(d) Opt Freq
 ----------------------
 1/18=20,19=15,38=1/1,3;
 2/9=110,12=2,17=6,18=5,40=1/2;
 3/5=1,6=6,7=1,11=9,25=1,30=1,71=1/1,2,3;
 4//1;
 5/5=2,38=5/2;
 6/7=2,8=2,9=2,10=2,28=1/1;
 7//1,2,3,16;
 1/18=20,19=15/3(2);
 2/9=110/2;
 99//99;
 2/9=110/2;
 3/5=1,6=6,7=1,11=9,25=1,30=1,71=1/1,2,3;
 4/5=5,16=3,69=1/1;
 5/5=2,38=5/2;
 7//1,2,3,16;
 1/18=20,19=15/3(-5);
 2/9=110/2;
 6/7=2,8=2,9=2,10=2,19=2,28=1/1;
 99/9=1/99;
 ----------------------------------------------------------------------
 O=[N+1]([O-1])OCC(O[N+1]([O-1])=O)(CO[N+1]([O-1])=O)O[N+1]([O-1])=O ge
 ometry optimization
 ----------------------------------------------------------------------
 Symbolic Z-matrix:
 Charge =  0 Multiplicity = 1
 O                     3.7176   -0.40248   0.71569 
 N                     3.26404  -0.69542  -0.39014 
 O                     3.79258  -1.25933  -1.34381 
 O                     1.9196   -0.33107  -0.64954 
 C                     1.30243   0.3214    0.46307 
 C                    -0.14323   0.75715   0.08029 
 O                    -0.71115   1.49927   1.1714 
 N                    -1.09416   0.76725   2.30984 
 O                    -0.90716  -0.44435   2.28707 
 O                    -1.55757   1.47867   3.19442 
 C                    -1.00497  -0.42521  -0.48697 
 O                    -0.51658  -1.69375  -0.04482 
 N                    -1.31379  -2.7756   -0.49265 
 O                    -0.89393  -3.86378  -0.10948 
 O                    -2.28066  -2.4991   -1.20222 
 O                     0.11409   1.68788  -1.01445 
 N                    -1.01781   2.39822  -1.47087 
 O                    -0.73914   3.22221  -2.3357 
 O                    -2.10443   2.09398  -0.98407 
 H                     1.30549  -0.34612   1.33101 
 H                     1.87362   1.22348   0.72418 
 H                    -2.04755  -0.30136  -0.16852 
 H                    -0.95733  -0.41193  -1.58372 
 

 GradGradGradGradGradGradGradGradGradGradGradGradGradGradGradGradGradGrad
 Berny optimization.
 Initialization pass.
                           ----------------------------
                           !    Initial Parameters    !
                           ! (Angstroms and Degrees)  !
 --------------------------                            --------------------------
 ! Name  Definition              Value          Derivative Info.                !
 --------------------------------------------------------------------------------
 ! R1    R(1,2)                  1.2306         estimate D2E/DX2                !
 ! R2    R(2,3)                  1.2275         estimate D2E/DX2                !
 ! R3    R(2,4)                  1.4169         estimate D2E/DX2                !
 ! R4    R(4,5)                  1.4299         estimate D2E/DX2                !
 ! R5    R(5,6)                  1.5577         estimate D2E/DX2                !
 ! R6    R(5,20)                 1.095          estimate D2E/DX2                !
 ! R7    R(5,21)                 1.0992         estimate D2E/DX2                !
 ! R8    R(6,7)                  1.4366         estimate D2E/DX2                !
 ! R9    R(6,11)                 1.5692         estimate D2E/DX2                !
 ! R10   R(6,16)                 1.4598         estimate D2E/DX2                !
 ! R11   R(7,8)                  1.4066         estimate D2E/DX2                !
 ! R12   R(8,9)                  1.2262         estimate D2E/DX2                !
 ! R13   R(8,10)                 1.2261         estimate D2E/DX2                !
 ! R14   R(11,12)                1.4294         estimate D2E/DX2                !
 ! R15   R(11,22)                1.0971         estimate D2E/DX2                !
 ! R16   R(11,23)                1.0979         estimate D2E/DX2                !
 ! R17   R(12,13)                1.4165         estimate D2E/DX2                !
 ! R18   R(13,14)                1.2277         estimate D2E/DX2                !
 ! R19   R(13,15)                1.2308         estimate D2E/DX2                !
 ! R20   R(16,17)                1.4121         estimate D2E/DX2                !
 ! R21   R(17,18)                1.2266         estimate D2E/DX2                !
 ! R22   R(17,19)                1.2289         estimate D2E/DX2                !
 ! A1    A(1,2,3)              130.4499         estimate D2E/DX2                !
 ! A2    A(1,2,4)              116.938          estimate D2E/DX2                !
 ! A3    A(3,2,4)              112.61           estimate D2E/DX2                !
 ! A4    A(2,4,5)              112.6092         estimate D2E/DX2                !
 ! A5    A(4,5,6)              109.696          estimate D2E/DX2                !
 ! A6    A(4,5,20)             109.7191         estimate D2E/DX2                !
 ! A7    A(4,5,21)             109.5751         estimate D2E/DX2                !
 ! A8    A(6,5,20)             111.5874         estimate D2E/DX2                !
 ! A9    A(6,5,21)             108.124          estimate D2E/DX2                !
 ! A10   A(20,5,21)            108.0938         estimate D2E/DX2                !
 ! A11   A(5,6,7)              108.9517         estimate D2E/DX2                !
 ! A12   A(5,6,11)             112.8128         estimate D2E/DX2                !
 ! A13   A(5,6,16)             101.4817         estimate D2E/DX2                !
 ! A14   A(7,6,11)             116.5323         estimate D2E/DX2                !
 ! A15   A(7,6,16)             108.0539         estimate D2E/DX2                !
 ! A16   A(11,6,16)            107.8247         estimate D2E/DX2                !
 ! A17   A(6,7,8)              116.9696         estimate D2E/DX2                !
 ! A18   A(7,8,9)              117.2368         estimate D2E/DX2                !
 ! A19   A(7,8,10)             112.6353         estimate D2E/DX2                !
 ! A20   A(9,8,10)             130.1189         estimate D2E/DX2                !
 ! A21   A(6,11,12)            111.6681         estimate D2E/DX2                !
 ! A22   A(6,11,22)            109.382          estimate D2E/DX2                !
 ! A23   A(6,11,23)            109.1589         estimate D2E/DX2                !
 ! A24   A(12,11,22)           109.5776         estimate D2E/DX2                !
 ! A25   A(12,11,23)           107.7536         estimate D2E/DX2                !
 ! A26   A(22,11,23)           109.258          estimate D2E/DX2                !
 ! A27   A(11,12,13)           112.8114         estimate D2E/DX2                !
 ! A28   A(12,13,14)           112.6935         estimate D2E/DX2                !
 ! A29   A(12,13,15)           116.9242         estimate D2E/DX2                !
 ! A30   A(14,13,15)           130.3711         estimate D2E/DX2                !
 ! A31   A(6,16,17)            114.9501         estimate D2E/DX2                !
 ! A32   A(16,17,18)           112.5632         estimate D2E/DX2                !
 ! A33   A(16,17,19)           117.1399         estimate D2E/DX2                !
 ! A34   A(18,17,19)           130.2765         estimate D2E/DX2                !
 ! D1    D(1,2,3,4)           -179.456          estimate D2E/DX2                !
 ! D2    D(1,2,4,5)             -0.6797         estimate D2E/DX2                !
 ! D3    D(3,2,4,5)            179.7847         estimate D2E/DX2                !
 ! D4    D(2,4,5,6)            177.0628         estimate D2E/DX2                !
 ! D5    D(2,4,5,20)           -60.0195         estimate D2E/DX2                !
 ! D6    D(2,4,5,21)            58.5101         estimate D2E/DX2                !
 ! D7    D(4,5,6,7)           -175.6513         estimate D2E/DX2                !
 ! D8    D(4,5,6,11)            53.2909         estimate D2E/DX2                !
 ! D9    D(4,5,6,16)           -61.8156         estimate D2E/DX2                !
 ! D10   D(20,5,6,7)            62.5424         estimate D2E/DX2                !
 ! D11   D(20,5,6,11)          -68.5155         estimate D2E/DX2                !
 ! D12   D(20,5,6,16)          176.378          estimate D2E/DX2                !
 ! D13   D(21,5,6,7)           -56.2048         estimate D2E/DX2                !
 ! D14   D(21,5,6,11)          172.7373         estimate D2E/DX2                !
 ! D15   D(21,5,6,16)           57.6308         estimate D2E/DX2                !
 ! D16   D(5,6,7,8)            -73.5254         estimate D2E/DX2                !
 ! D17   D(11,6,7,8)            55.4987         estimate D2E/DX2                !
 ! D18   D(16,6,7,8)           177.0059         estimate D2E/DX2                !
 ! D19   D(5,6,11,12)           23.6764         estimate D2E/DX2                !
 ! D20   D(5,6,11,22)          145.1425         estimate D2E/DX2                !
 ! D21   D(5,6,11,23)          -95.3612         estimate D2E/DX2                !
 ! D22   D(7,6,11,12)         -103.4675         estimate D2E/DX2                !
 ! D23   D(7,6,11,22)           17.9987         estimate D2E/DX2                !
 ! D24   D(7,6,11,23)          137.4949         estimate D2E/DX2                !
 ! D25   D(16,6,11,12)         134.9046         estimate D2E/DX2                !
 ! D26   D(16,6,11,22)        -103.6292         estimate D2E/DX2                !
 ! D27   D(16,6,11,23)          15.867          estimate D2E/DX2                !
 ! D28   D(5,6,16,17)         -172.0993         estimate D2E/DX2                !
 ! D29   D(7,6,16,17)          -57.5942         estimate D2E/DX2                !
 ! D30   D(11,6,16,17)          69.1565         estimate D2E/DX2                !
 ! D31   D(6,7,8,9)              0.4194         estimate D2E/DX2                !
 ! D32   D(6,7,8,10)           179.4329         estimate D2E/DX2                !
 ! D33   D(7,8,9,10)           178.8093         estimate D2E/DX2                !
 ! D34   D(6,11,12,13)         177.2664         estimate D2E/DX2                !
 ! D35   D(22,11,12,13)         55.9136         estimate D2E/DX2                !
 ! D36   D(23,11,12,13)        -62.8654         estimate D2E/DX2                !
 ! D37   D(11,12,13,14)       -179.8641         estimate D2E/DX2                !
 ! D38   D(11,12,13,15)          1.2241         estimate D2E/DX2                !
 ! D39   D(12,13,14,15)       -178.7265         estimate D2E/DX2                !
 ! D40   D(6,16,17,18)         176.0188         estimate D2E/DX2                !
 ! D41   D(6,16,17,19)          -5.4548         estimate D2E/DX2                !
 ! D42   D(16,17,18,19)        178.281          estimate D2E/DX2                !
 --------------------------------------------------------------------------------
 Trust Radius=3.00D-01 FncErr=1.00D-07 GrdErr=1.00D-07 EigMax=2.50D+02 EigMin=1.00D-04
 Number of steps in this run=    108 maximum allowed number of steps=    138.
 GradGradGradGradGradGradGradGradGradGradGradGradGradGradGradGradGradGrad

                          Input orientation:                          
 ---------------------------------------------------------------------
 Center     Atomic      Atomic             Coordinates (Angstroms)
 Number     Number       Type             X           Y           Z
 ---------------------------------------------------------------------
      1          8           0        3.717602   -0.402484    0.715690
      2          7           0        3.264039   -0.695419   -0.390141
      3          8           0        3.792584   -1.259332   -1.343813
      4          8           0        1.919603   -0.331066   -0.649541
      5          6           0        1.302434    0.321402    0.463069
      6          6           0       -0.143227    0.757152    0.080293
      7          8           0       -0.711151    1.499268    1.171403
      8          7           0       -1.094155    0.767255    2.309843
      9          8           0       -0.907157   -0.444351    2.287068
     10          8           0       -1.557574    1.478668    3.194417
     11          6           0       -1.004968   -0.425214   -0.486971
     12          8           0       -0.516576   -1.693751   -0.044816
     13          7           0       -1.313793   -2.775604   -0.492649
     14          8           0       -0.893929   -3.863776   -0.109482
     15          8           0       -2.280656   -2.499096   -1.202222
     16          8           0        0.114085    1.687878   -1.014452
     17          7           0       -1.017811    2.398219   -1.470875
     18          8           0       -0.739140    3.222208   -2.335697
     19          8           0       -2.104427    2.093979   -0.984066
     20          1           0        1.305485   -0.346121    1.331011
     21          1           0        1.873616    1.223477    0.724178
     22          1           0       -2.047554   -0.301358   -0.168523
     23          1           0       -0.957331   -0.411932   -1.583723
 ---------------------------------------------------------------------
                    Distance matrix (angstroms):
                    1          2          3          4          5
     1  O    0.000000
     2  N    1.230606   0.000000
     3  O    2.231896   1.227537   0.000000
     4  O    2.258707   1.416881   2.202669   0.000000
     5  C    2.533943   2.368499   3.458958   1.429864   0.000000
     6  C    4.080991   3.733729   4.645954   2.443797   1.557668
     7  O    4.841301   4.801792   5.849770   3.686031   2.437956
     8  N    5.202175   5.331340   6.429345   4.364287   3.058267
     9  O    4.884607   4.962797   5.994585   4.077631   2.965744
    10  O    6.124565   6.389339   7.531026   5.490164   4.120578
    11  C    4.873354   4.278645   4.944333   2.930598   2.604633
    12  O    4.491548   3.925425   4.521611   2.856145   2.761808
    13  N    5.692690   5.029336   5.394316   4.056504   4.165271
    14  O    5.824747   5.235069   5.501827   4.548369   4.761044
    15  O    6.637264   5.886966   6.200105   4.758989   4.854579
    16  O    4.510913   3.999010   4.725027   2.732982   2.337199
    17  N    5.920231   5.391922   6.044313   4.092919   3.665630
    18  O    6.504760   5.929455   6.450159   4.747399   4.518383
    19  O    6.558775   6.078974   6.793294   4.710156   4.104014
    20  H    2.490001   2.630647   3.764876   2.073632   1.094952
    21  H    2.458477   2.618616   3.758107   2.075048   1.099167
    22  H    5.833446   5.330799   6.033758   3.996323   3.465423
    23  H    5.209836   4.396018   4.830873   3.025886   3.135869
                    6          7          8          9         10
     6  C    0.000000
     7  O    1.436592   0.000000
     8  N    2.423894   1.406621   0.000000
     9  O    2.626224   2.249618   1.226162   0.000000
    10  O    3.495530   2.193043   1.226106   2.223583   0.000000
    11  C    1.569196   2.557375   3.041728   2.775829   4.181239
    12  O    2.482331   3.422341   3.454644   2.674180   4.651940
    13  N    3.765482   4.626746   4.522615   3.650605   5.634954
    14  O    4.685355   5.516912   5.228735   4.175655   6.316477
    15  O    4.100805   4.907582   4.940793   4.275935   5.972930
    16  O    1.459769   2.344046   3.654905   4.060710   4.533518
    17  N    2.421594   2.807808   4.118216   4.713234   4.785589
    18  O    3.502658   3.907564   5.266296   5.902697   5.855931
    19  O    2.601206   2.634568   3.691976   4.310091   4.258800
    20  H    2.209135   2.738204   2.820637   2.412360   3.872886
    21  H    2.167880   2.637629   3.395606   3.599579   4.235594
    22  H    2.192901   2.612208   2.862377   2.711250   3.836396
    23  H    2.190542   3.362144   4.070511   3.871251   5.173517
                   11         12         13         14         15
    11  C    0.000000
    12  O    1.429410   0.000000
    13  N    2.370599   1.416515   0.000000
    14  O    3.461002   2.203540   1.227689   0.000000
    15  O    2.537706   2.258351   1.230762   2.231467   0.000000
    16  O    2.448607   3.573982   4.715272   5.714537   4.827090
    17  N    2.989985   4.362236   5.273801   6.409472   5.064647
    18  O    4.097821   5.428105   6.300857   7.429075   6.032773
    19  O    2.793250   4.213118   4.957765   6.142072   4.601628
    20  H    2.941005   2.651209   4.011077   4.391621   4.890090
    21  H    3.531474   3.848972   5.256700   5.851021   5.901402
    22  H    1.097149   2.073151   2.601030   3.745018   2.439862
    23  H    1.097866   2.050746   2.627632   3.754015   2.500596
                   16         17         18         19         20
    16  O    0.000000
    17  N    1.412124   0.000000
    18  O    2.197237   1.226594   0.000000
    19  O    2.255580   1.228935   2.227962   0.000000
    20  H    3.325325   4.558472   5.509829   4.789695   0.000000
    21  H    2.516833   3.815576   4.492689   4.415959   1.776136
    22  H    3.057016   3.169260   4.338676   2.531005   3.673347
    23  H    2.425120   2.813067   3.717532   2.820462   3.690575
                   21         22         23
    21  H    0.000000
    22  H    4.300885   0.000000
    23  H    4.001904   1.789862   0.000000
 Stoichiometry    C3H4N4O12
 Framework group  C1[X(C3H4N4O12)]
 Deg. of freedom    63
 Full point group                 C1      NOp   1
 Largest Abelian subgroup         C1      NOp   1
 Largest concise Abelian subgroup C1      NOp   1
                         Standard orientation:                         
 ---------------------------------------------------------------------
 Center     Atomic      Atomic             Coordinates (Angstroms)
 Number     Number       Type             X           Y           Z
 ---------------------------------------------------------------------
      1          8           0       -2.975109   -1.927811    1.416604
      2          7           0       -2.941934   -1.616455    0.226499
      3          8           0       -3.807002   -1.692725   -0.641077
      4          8           0       -1.721993   -1.089898   -0.265466
      5          6           0       -0.715886   -0.996478    0.746233
      6          6           0        0.613606   -0.481901    0.118543
      7          8           0        1.638875   -0.491083    1.124791
      8          7           0        1.569601    0.505329    2.115219
      9          8           0        0.637181    1.298828    2.048700
     10          8           0        2.474583    0.416833    2.937722
     11          6           0        0.430569    0.854356   -0.683512
     12          8           0       -0.716310    1.583213   -0.240061
     13          7           0       -0.869717    2.824003   -0.905961
     14          8           0       -1.853806    3.449341   -0.521587
     15          8           0       -0.038108    3.099035   -1.770575
     16          8           0        0.911393   -1.541446   -0.840422
     17          7           0        2.176376   -1.445264   -1.460633
     18          8           0        2.412811   -2.396875   -2.197563
     19          8           0        2.845657   -0.443854   -1.216660
     20          1           0       -1.061643   -0.340196    1.551630
     21          1           0       -0.529540   -1.991986    1.173325
     22          1           0        1.327996    1.474697   -0.567159
     23          1           0        0.287778    0.619882   -1.746499
 ---------------------------------------------------------------------
 Rotational constants (GHZ):           0.3501371           0.3020132           0.2523835
 Standard basis: 6-31G(d) (6D, 7F)
 There are   293 symmetry adapted cartesian basis functions of A   symmetry.
 There are   293 symmetry adapted basis functions of A   symmetry.
   293 basis functions,   548 primitive gaussians,   293 cartesian basis functions
    73 alpha electrons       73 beta electrons
       nuclear repulsion energy      1650.2658917669 Hartrees.
 NAtoms=   23 NActive=   23 NUniq=   23 SFac= 1.00D+00 NAtFMM=   60 NAOKFM=F Big=F
 Integral buffers will be    131072 words long.
 Raffenetti 1 integral format.
 Two-electron integral symmetry is turned on.
 One-electron integrals computed using PRISM.
 NBasis=   293 RedAO= T EigKep=  1.68D-03  NBF=   293
 NBsUse=   293 1.00D-06 EigRej= -1.00D+00 NBFU=   293
 ExpMin= 1.61D-01 ExpMax= 5.48D+03 ExpMxC= 8.25D+02 IAcc=3 IRadAn=         5 AccDes= 0.00D+00
 Harris functional with IExCor=  205 and IRadAn=       5 diagonalized for initial guess.
 HarFok:  IExCor=  205 AccDes= 0.00D+00 IRadAn=         5 IDoV= 1 UseB2=F ITyADJ=14
 ICtDFT=  3500011 ScaDFX=  1.000000  1.000000  1.000000  1.000000
 FoFCou: FMM=F IPFlag=           0 FMFlag=      100000 FMFlg1=           0
         NFxFlg=           0 DoJE=T BraDBF=F KetDBF=T FulRan=T
         wScrn=  0.000000 ICntrl=       500 IOpCl=  0 I1Cent=   200000004 NGrid=           0
         NMat0=    1 NMatS0=      1 NMatT0=    0 NMatD0=    1 NMtDS0=    0 NMtDT0=    0
 Petite list used in FoFCou.
 Requested convergence on RMS density matrix=1.00D-08 within 128 cycles.
 Requested convergence on MAX density matrix=1.00D-06.
 Requested convergence on             energy=1.00D-06.
 No special actions if energy rises.
 Integral accuracy reduced to 1.0D-05 until final iterations.
 Initial convergence to 1.0D-05 achieved.  Increase integral accuracy.
 SCF Done:  E(RHF) =  -1231.28962266     A.U. after   17 cycles
            NFock= 17  Conv=0.43D-08     -V/T= 2.0045

 **********************************************************************

            Population analysis using the SCF Density.

 **********************************************************************

 Orbital symmetries:
       Occupied  (A) (A) (A) (A) (A) (A) (A) (A) (A) (A) (A) (A)
                 (A) (A) (A) (A) (A) (A) (A) (A) (A) (A) (A) (A)
                 (A) (A) (A) (A) (A) (A) (A) (A) (A) (A) (A) (A)
                 (A) (A) (A) (A) (A) (A) (A) (A) (A) (A) (A) (A)
                 (A) (A) (A) (A) (A) (A) (A) (A) (A) (A) (A) (A)
                 (A) (A) (A) (A) (A) (A) (A) (A) (A) (A) (A) (A)
                 (A)
       Virtual   (A) (A) (A) (A) (A) (A) (A) (A) (A) (A) (A) (A)
                 (A) (A) (A) (A) (A) (A) (A) (A) (A) (A) (A) (A)
                 (A) (A) (A) (A) (A) (A) (A) (A) (A) (A) (A) (A)
                 (A) (A) (A) (A) (A) (A) (A) (A) (A) (A) (A) (A)
                 (A) (A) (A) (A) (A) (A) (A) (A) (A) (A) (A) (A)
                 (A) (A) (A) (A) (A) (A) (A) (A) (A) (A) (A) (A)
                 (A) (A) (A) (A) (A) (A) (A) (A) (A) (A) (A) (A)
                 (A) (A) (A) (A) (A) (A) (A) (A) (A) (A) (A) (A)
                 (A) (A) (A) (A) (A) (A) (A) (A) (A) (A) (A) (A)
                 (A) (A) (A) (A) (A) (A) (A) (A) (A) (A) (A) (A)
                 (A) (A) (A) (A) (A) (A) (A) (A) (A) (A) (A) (A)
                 (A) (A) (A) (A) (A) (A) (A) (A) (A) (A) (A) (A)
                 (A) (A) (A) (A) (A) (A) (A) (A) (A) (A) (A) (A)
                 (A) (A) (A) (A) (A) (A) (A) (A) (A) (A) (A) (A)
                 (A) (A) (A) (A) (A) (A) (A) (A) (A) (A) (A) (A)
                 (A) (A) (A) (A) (A) (A) (A) (A) (A) (A) (A) (A)
                 (A) (A) (A) (A) (A) (A) (A) (A) (A) (A) (A) (A)
                 (A) (A) (A) (A) (A) (A) (A) (A) (A) (A) (A) (A)
                 (A) (A) (A) (A)
 The electronic state is 1-A.
 Alpha  occ. eigenvalues --  -20.75041 -20.74969 -20.72011 -20.71495 -20.69620
 Alpha  occ. eigenvalues --  -20.69577 -20.69014 -20.68961 -20.67444 -20.67156
 Alpha  occ. eigenvalues --  -20.67144 -20.66873 -15.99428 -15.98439 -15.96707
 Alpha  occ. eigenvalues --  -15.96439 -11.48780 -11.37691 -11.37659  -1.71472
 Alpha  occ. eigenvalues --   -1.70303  -1.68247  -1.67953  -1.52555  -1.49007
 Alpha  occ. eigenvalues --   -1.48183  -1.47367  -1.46645  -1.46415  -1.46186
 Alpha  occ. eigenvalues --   -1.45941  -1.15746  -1.06228  -1.03363  -0.99424
 Alpha  occ. eigenvalues --   -0.93666  -0.93512  -0.88605  -0.86384  -0.83950
 Alpha  occ. eigenvalues --   -0.83758  -0.83437  -0.82629  -0.81673  -0.80738
 Alpha  occ. eigenvalues --   -0.80365  -0.80262  -0.79556  -0.78621  -0.77040
 Alpha  occ. eigenvalues --   -0.73160  -0.71453  -0.70220  -0.67404  -0.66752
 Alpha  occ. eigenvalues --   -0.65335  -0.63821  -0.62207  -0.59140  -0.58380
 Alpha  occ. eigenvalues --   -0.57230  -0.56762  -0.56056  -0.55777  -0.55002
 Alpha  occ. eigenvalues --   -0.54850  -0.54606  -0.54184  -0.53265  -0.52527
 Alpha  occ. eigenvalues --   -0.51893  -0.50343  -0.50113
 Alpha virt. eigenvalues --    0.03680   0.04239   0.06097   0.06459   0.15504
 Alpha virt. eigenvalues --    0.15757   0.19378   0.20973   0.23562   0.24049
 Alpha virt. eigenvalues --    0.25393   0.26785   0.28374   0.29804   0.34736
 Alpha virt. eigenvalues --    0.36073   0.38279   0.39928   0.43015   0.43310
 Alpha virt. eigenvalues --    0.44596   0.44940   0.54533   0.55367   0.56525
 Alpha virt. eigenvalues --    0.57755   0.67435   0.68926   0.69859   0.72360
 Alpha virt. eigenvalues --    0.73136   0.73330   0.74927   0.76643   0.78954
 Alpha virt. eigenvalues --    0.80320   0.80635   0.80976   0.83159   0.84482
 Alpha virt. eigenvalues --    0.85149   0.86370   0.86935   0.87857   0.88968
 Alpha virt. eigenvalues --    0.91073   0.91904   0.94517   0.98215   0.99298
 Alpha virt. eigenvalues --    1.00195   1.01452   1.02486   1.03517   1.04036
 Alpha virt. eigenvalues --    1.04444   1.04980   1.06002   1.07564   1.08083
 Alpha virt. eigenvalues --    1.08961   1.10247   1.11316   1.12922   1.13275
 Alpha virt. eigenvalues --    1.13551   1.16160   1.16252   1.17026   1.18769
 Alpha virt. eigenvalues --    1.19610   1.20496   1.20936   1.21373   1.21897
 Alpha virt. eigenvalues --    1.22734   1.23574   1.24133   1.24267   1.25237
 Alpha virt. eigenvalues --    1.27367   1.27497   1.30658   1.32935   1.34046
 Alpha virt. eigenvalues --    1.36569   1.38263   1.39574   1.40907   1.42611
 Alpha virt. eigenvalues --    1.46740   1.49255   1.53145   1.54703   1.56275
 Alpha virt. eigenvalues --    1.58828   1.59344   1.59565   1.61250   1.61569
 Alpha virt. eigenvalues --    1.62548   1.63269   1.66184   1.68119   1.69583
 Alpha virt. eigenvalues --    1.70202   1.71298   1.72586   1.74236   1.78988
 Alpha virt. eigenvalues --    1.81972   1.83570   1.88730   1.90913   1.92084
 Alpha virt. eigenvalues --    1.94305   1.95239   1.96469   1.97978   1.99125
 Alpha virt. eigenvalues --    1.99617   2.00785   2.02049   2.02588   2.03436
 Alpha virt. eigenvalues --    2.03711   2.03969   2.04255   2.04659   2.05026
 Alpha virt. eigenvalues --    2.05649   2.06614   2.07790   2.09659   2.11084
 Alpha virt. eigenvalues --    2.14682   2.15978   2.17625   2.20814   2.22468
 Alpha virt. eigenvalues --    2.23724   2.24483   2.25645   2.27378   2.27912
 Alpha virt. eigenvalues --    2.28423   2.29185   2.31389   2.33571   2.35141
 Alpha virt. eigenvalues --    2.35855   2.37202   2.38473   2.38946   2.40194
 Alpha virt. eigenvalues --    2.41559   2.43197   2.46492   2.48241   2.49505
 Alpha virt. eigenvalues --    2.51422   2.53155   2.57435   2.58658   2.60889
 Alpha virt. eigenvalues --    2.66489   2.70439   2.75139   2.76194   2.78996
 Alpha virt. eigenvalues --    2.79963   2.81584   2.94485   2.96455   2.98771
 Alpha virt. eigenvalues --    2.99157   2.99563   2.99934   3.01153   3.02686
 Alpha virt. eigenvalues --    3.05417   3.09065   3.09834   3.11353   3.14328
 Alpha virt. eigenvalues --    3.14671   3.15014   3.15863   3.16024   3.16834
 Alpha virt. eigenvalues --    3.16925   3.18214   3.22353   3.30214   3.33463
 Alpha virt. eigenvalues --    3.34347   3.36222   3.36772   3.40570   3.44558
 Alpha virt. eigenvalues --    3.46565   3.92734   3.96267   3.96655   4.01951
 Alpha virt. eigenvalues --    4.16342   4.17224   4.17805   4.18436   4.20059
 Alpha virt. eigenvalues --    4.21403   4.22727   4.25540   4.39109   4.52539
 Alpha virt. eigenvalues --    4.54582   4.59605   4.73463   4.76002   5.09239
          Condensed to atoms (all electrons):
               1          2          3          4          5          6
     1  O    8.261545   0.322810  -0.073790  -0.087704   0.000785   0.000703
     2  N    0.322810   5.222604   0.377412   0.204615  -0.036928   0.002368
     3  O   -0.073790   0.377412   8.167936  -0.084288   0.003247  -0.000062
     4  O   -0.087704   0.204615  -0.084288   8.422364   0.121701  -0.031808
     5  C    0.000785  -0.036928   0.003247   0.121701   4.960584   0.351845
     6  C    0.000703   0.002368  -0.000062  -0.031808   0.351845   4.637761
     7  O    0.000001  -0.000005   0.000000   0.000669  -0.031555   0.122646
     8  N    0.000000  -0.000001   0.000000  -0.000007  -0.003235  -0.014820
     9  O    0.000000   0.000002   0.000000   0.000063  -0.006251   0.007238
    10  O    0.000000   0.000000   0.000000   0.000000  -0.000119   0.002480
    11  C   -0.000001  -0.000311   0.000000   0.003613  -0.059846   0.310630
    12  O   -0.000005   0.000143  -0.000003  -0.000457  -0.006314  -0.014715
    13  N    0.000000  -0.000001   0.000000   0.000029  -0.000120   0.001755
    14  O    0.000000   0.000000   0.000000   0.000000  -0.000027  -0.000033
    15  O    0.000000   0.000000   0.000000  -0.000001  -0.000013   0.000692
    16  O   -0.000004  -0.000047   0.000000   0.003749  -0.056195   0.139154
    17  N    0.000000   0.000001   0.000000  -0.000038   0.002693  -0.020620
    18  O    0.000000   0.000000   0.000000   0.000002  -0.000167   0.002972
    19  O    0.000000   0.000000   0.000000   0.000000  -0.000029   0.012191
    20  H    0.002531  -0.002366   0.000006  -0.026449   0.390931  -0.029865
    21  H    0.002024  -0.003667  -0.000006  -0.028141   0.384622  -0.029356
    22  H    0.000000   0.000002   0.000000   0.000036   0.002980  -0.033414
    23  H    0.000000  -0.000007   0.000000  -0.000044   0.000978  -0.036386
               7          8          9         10         11         12
     1  O    0.000001   0.000000   0.000000   0.000000  -0.000001  -0.000005
     2  N   -0.000005  -0.000001   0.000002   0.000000  -0.000311   0.000143
     3  O    0.000000   0.000000   0.000000   0.000000   0.000000  -0.000003
     4  O    0.000669  -0.000007   0.000063   0.000000   0.003613  -0.000457
     5  C   -0.031555  -0.003235  -0.006251  -0.000119  -0.059846  -0.006314
     6  C    0.122646  -0.014820   0.007238   0.002480   0.310630  -0.014715
     7  O    8.485729   0.184659  -0.091221  -0.084237  -0.033911   0.000884
     8  N    0.184659   5.241770   0.307873   0.375538  -0.001773   0.001176
     9  O   -0.091221   0.307873   8.280123  -0.076067  -0.002503  -0.008140
    10  O   -0.084237   0.375538  -0.076067   8.154594  -0.000085   0.000003
    11  C   -0.033911  -0.001773  -0.002503  -0.000085   4.974208   0.114371
    12  O    0.000884   0.001176  -0.008140   0.000003   0.114371   8.436990
    13  N   -0.000020  -0.000024   0.000372   0.000000  -0.036518   0.205533
    14  O    0.000000   0.000001  -0.000010   0.000000   0.003179  -0.084374
    15  O    0.000000  -0.000002  -0.000015   0.000000   0.000036  -0.087209
    16  O   -0.022670   0.000755  -0.000004  -0.000023  -0.043119   0.000706
    17  N   -0.001455   0.000009  -0.000001  -0.000004  -0.005314  -0.000003
    18  O   -0.000146   0.000001   0.000000   0.000000  -0.000107   0.000000
    19  O   -0.009829   0.000299  -0.000006  -0.000005  -0.000904   0.000111
    20  H    0.000400  -0.000927   0.003899  -0.000040  -0.001894   0.000523
    21  H    0.000417   0.000181   0.000230  -0.000017   0.003815   0.000063
    22  H   -0.001441   0.000022   0.000061  -0.000122   0.389738  -0.029923
    23  H    0.001800   0.000003   0.000322   0.000001   0.397654  -0.031114
              13         14         15         16         17         18
     1  O    0.000000   0.000000   0.000000  -0.000004   0.000000   0.000000
     2  N   -0.000001   0.000000   0.000000  -0.000047   0.000001   0.000000
     3  O    0.000000   0.000000   0.000000   0.000000   0.000000   0.000000
     4  O    0.000029   0.000000  -0.000001   0.003749  -0.000038   0.000002
     5  C   -0.000120  -0.000027  -0.000013  -0.056195   0.002693  -0.000167
     6  C    0.001755  -0.000033   0.000692   0.139154  -0.020620   0.002972
     7  O   -0.000020   0.000000   0.000000  -0.022670  -0.001455  -0.000146
     8  N   -0.000024   0.000001  -0.000002   0.000755   0.000009   0.000001
     9  O    0.000372  -0.000010  -0.000015  -0.000004  -0.000001   0.000000
    10  O    0.000000   0.000000   0.000000  -0.000023  -0.000004   0.000000
    11  C   -0.036518   0.003179   0.000036  -0.043119  -0.005314  -0.000107
    12  O    0.205533  -0.084374  -0.087209   0.000706  -0.000003   0.000000
    13  N    5.221692   0.376805   0.323400  -0.000015  -0.000001   0.000000
    14  O    0.376805   8.171408  -0.073898   0.000000   0.000000   0.000000
    15  O    0.323400  -0.073898   8.262648   0.000000   0.000000   0.000000
    16  O   -0.000015   0.000000   0.000000   8.478809   0.182459  -0.084339
    17  N   -0.000001   0.000000   0.000000   0.182459   5.242988   0.373360
    18  O    0.000000   0.000000   0.000000  -0.084339   0.373360   8.158001
    19  O    0.000001   0.000000   0.000002  -0.088939   0.315354  -0.074990
    20  H   -0.000055   0.000007   0.000002   0.002056  -0.000013   0.000001
    21  H    0.000004   0.000000   0.000000  -0.001491  -0.000212  -0.000007
    22  H   -0.004023   0.000005   0.002444   0.001661  -0.000327   0.000001
    23  H   -0.002644  -0.000010   0.001795  -0.001223   0.000477  -0.000113
              19         20         21         22         23
     1  O    0.000000   0.002531   0.002024   0.000000   0.000000
     2  N    0.000000  -0.002366  -0.003667   0.000002  -0.000007
     3  O    0.000000   0.000006  -0.000006   0.000000   0.000000
     4  O    0.000000  -0.026449  -0.028141   0.000036  -0.000044
     5  C   -0.000029   0.390931   0.384622   0.002980   0.000978
     6  C    0.012191  -0.029865  -0.029356  -0.033414  -0.036386
     7  O   -0.009829   0.000400   0.000417  -0.001441   0.001800
     8  N    0.000299  -0.000927   0.000181   0.000022   0.000003
     9  O   -0.000006   0.003899   0.000230   0.000061   0.000322
    10  O   -0.000005  -0.000040  -0.000017  -0.000122   0.000001
    11  C   -0.000904  -0.001894   0.003815   0.389738   0.397654
    12  O    0.000111   0.000523   0.000063  -0.029923  -0.031114
    13  N    0.000001  -0.000055   0.000004  -0.004023  -0.002644
    14  O    0.000000   0.000007   0.000000   0.000005  -0.000010
    15  O    0.000002   0.000002   0.000000   0.002444   0.001795
    16  O   -0.088939   0.002056  -0.001491   0.001661  -0.001223
    17  N    0.315354  -0.000013  -0.000212  -0.000327   0.000477
    18  O   -0.074990   0.000001  -0.000007   0.000001  -0.000113
    19  O    8.268079   0.000004   0.000003   0.000526  -0.000235
    20  H    0.000004   0.417245  -0.024904   0.000018   0.000041
    21  H    0.000003  -0.024904   0.448951  -0.000048  -0.000048
    22  H    0.000526   0.000018  -0.000048   0.438131  -0.022198
    23  H   -0.000235   0.000041  -0.000048  -0.022198   0.443343
 Mulliken charges:
               1
     1  O   -0.428896
     2  N    0.913375
     3  O   -0.390451
     4  O   -0.497903
     5  C   -0.019566
     6  C    0.618644
     7  O   -0.520714
     8  N    0.908501
     9  O   -0.415966
    10  O   -0.371894
    11  C   -0.010960
    12  O   -0.498246
    13  N    0.913831
    14  O   -0.393053
    15  O   -0.429881
    16  O   -0.511279
    17  N    0.910648
    18  O   -0.374468
    19  O   -0.421635
    20  H    0.268847
    21  H    0.247585
    22  H    0.255871
    23  H    0.247608
 Sum of Mulliken charges =   0.00000
 Mulliken charges with hydrogens summed into heavy atoms:
               1
     1  O   -0.428896
     2  N    0.913375
     3  O   -0.390451
     4  O   -0.497903
     5  C    0.496866
     6  C    0.618644
     7  O   -0.520714
     8  N    0.908501
     9  O   -0.415966
    10  O   -0.371894
    11  C    0.492520
    12  O   -0.498246
    13  N    0.913831
    14  O   -0.393053
    15  O   -0.429881
    16  O   -0.511279
    17  N    0.910648
    18  O   -0.374468
    19  O   -0.421635
 Electronic spatial extent (au):  <R**2>=           4866.1774
 Charge=              0.0000 electrons
 Dipole moment (field-independent basis, Debye):
    X=              1.6056    Y=             -1.2692    Z=              0.7778  Tot=              2.1895
 Quadrupole moment (field-independent basis, Debye-Ang):
   XX=           -125.4873   YY=           -117.9732   ZZ=           -112.7435
   XY=              1.6780   XZ=             -0.4429   YZ=             -2.6021
 Traceless Quadrupole moment (field-independent basis, Debye-Ang):
   XX=             -6.7526   YY=              0.7614   ZZ=              5.9912
   XY=              1.6780   XZ=             -0.4429   YZ=             -2.6021
 Octapole moment (field-independent basis, Debye-Ang**2):
  XXX=             19.5052  YYY=            -28.6543  ZZZ=            -10.4003  XYY=             18.1350
  XXY=             22.4492  XXZ=              1.6973  XZZ=            -14.6734  YZZ=             -1.1441
  YYZ=             20.3593  XYZ=             -9.5427
 Hexadecapole moment (field-independent basis, Debye-Ang**3):
 XXXX=          -2678.6081 YYYY=          -2093.7933 ZZZZ=          -1300.8310 XXXY=            -61.1152
 XXXZ=              4.2793 YYYX=             62.5499 YYYZ=             36.2114 ZZZX=            -13.6886
 ZZZY=            -12.3740 XXYY=           -804.2262 XXZZ=           -693.4767 YYZZ=           -598.9339
 XXYZ=             -8.3877 YYXZ=             27.4140 ZZXY=             -9.3223
 N-N= 1.650265891767D+03 E-N=-6.197780558958D+03  KE= 1.225752641755D+03
 Calling FoFJK, ICntrl=      2127 FMM=F ISym2X=0 I1Cent= 0 IOpClX= 0 NMat=1 NMatS=1 NMatT=0.
 ***** Axes restored to original set *****
 -------------------------------------------------------------------
 Center     Atomic                   Forces (Hartrees/Bohr)
 Number     Number              X              Y              Z
 -------------------------------------------------------------------
      1        8          -0.028940407   -0.023125461   -0.079951376
      2        7           0.017904087   -0.009241887   -0.011542122
      3        8          -0.041795914    0.046273883    0.080661027
      4        8           0.040579084   -0.006981172    0.014653937
      5        6           0.010738735    0.010913225    0.018015028
      6        6           0.026222251   -0.028494769   -0.023287816
      7        8          -0.000778504   -0.026118406    0.018663428
      8        7          -0.011787348    0.002713286    0.034751981
      9        8          -0.015728499    0.082669341    0.005735835
     10        8           0.038655479   -0.060015647   -0.076356821
     11        6          -0.024387144    0.006476879   -0.004860104
     12        8          -0.027691622   -0.031537999   -0.015825014
     13        7           0.002084571   -0.020931583   -0.002579760
     14        8          -0.037007319    0.088994615   -0.031846575
     15        8           0.067124175   -0.024291437    0.051105037
     16        8          -0.051655678    0.015700677    0.023286248
     17        7          -0.014900162    0.022031569   -0.027146174
     18        8          -0.024308291   -0.068200369    0.074167254
     19        8           0.074148631    0.024326270   -0.039073768
     20        1          -0.005010750    0.007471288   -0.013104158
     21        1          -0.009236982   -0.010088333   -0.005167041
     22        1           0.014942227   -0.002252351   -0.006040751
     23        1           0.000829378    0.003708382    0.015741705
 -------------------------------------------------------------------
 Cartesian Forces:  Max     0.088994615 RMS     0.035919029

 GradGradGradGradGradGradGradGradGradGradGradGradGradGradGradGradGradGrad
 Berny optimization.
 FormGI is forming the generalized inverse of G from B-inverse, IUseBI=4.
 Internal  Forces:  Max     0.104520177 RMS     0.030055986
 Search for a local minimum.
 Step number   1 out of a maximum of  108
 All quantities printed in internal units (Hartrees-Bohrs-Radians)
 Mixed Optimization -- RFO/linear search
 Second derivative matrix not updated -- first step.
 ITU=  0
     Eigenvalues ---    0.00230   0.00230   0.00901   0.01072   0.01076
     Eigenvalues ---    0.01134   0.01207   0.01208   0.01297   0.01303
     Eigenvalues ---    0.02908   0.02908   0.02932   0.02986   0.04394
     Eigenvalues ---    0.04891   0.05003   0.05789   0.05804   0.06541
     Eigenvalues ---    0.09365   0.11299   0.11497   0.13750   0.13870
     Eigenvalues ---    0.17343   0.18484   0.22013   0.22103   0.24995
     Eigenvalues ---    0.24997   0.24998   0.24999   0.25000   0.25000
     Eigenvalues ---    0.25000   0.25000   0.25000   0.25000   0.25000
     Eigenvalues ---    0.25000   0.26082   0.27009   0.33774   0.33919
     Eigenvalues ---    0.33999   0.34247   0.36993   0.40057   0.41009
     Eigenvalues ---    0.41074   0.42934   0.42989   0.43669   0.44541
     Eigenvalues ---    0.90770   0.90834   0.91532   0.92056   0.92120
     Eigenvalues ---    0.92520   0.92704   0.92728
 RFO step:  Lambda=-1.06947441D-01 EMin= 2.30000000D-03
 Linear search not attempted -- first point.
 Maximum step size (   0.300) exceeded in Quadratic search.
    -- Step size scaled by   0.792
 Iteration  1 RMS(Cart)=  0.09410163 RMS(Int)=  0.00211015
 Iteration  2 RMS(Cart)=  0.00342564 RMS(Int)=  0.00013973
 Iteration  3 RMS(Cart)=  0.00000656 RMS(Int)=  0.00013970
 Iteration  4 RMS(Cart)=  0.00000000 RMS(Int)=  0.00013970
 Variable       Old X    -DE/DX   Delta X   Delta X   Delta X     New X
                                 (Linear)    (Quad)   (Total)
    R1        2.32551  -0.08802   0.00000  -0.06867  -0.06867   2.25684
    R2        2.31971  -0.10192   0.00000  -0.07852  -0.07852   2.24119
    R3        2.67752  -0.05569   0.00000  -0.08226  -0.08226   2.59526
    R4        2.70205  -0.01142   0.00000  -0.01750  -0.01750   2.68455
    R5        2.94357  -0.01801   0.00000  -0.03784  -0.03784   2.90573
    R6        2.06916  -0.01496   0.00000  -0.02636  -0.02636   2.04280
    R7        2.07712  -0.01431   0.00000  -0.02548  -0.02548   2.05164
    R8        2.71476  -0.01755   0.00000  -0.02740  -0.02740   2.68737
    R9        2.96535  -0.01500   0.00000  -0.03231  -0.03231   2.93304
   R10        2.75856  -0.03029   0.00000  -0.05031  -0.05031   2.70826
   R11        2.65813  -0.04526   0.00000  -0.06491  -0.06491   2.59321
   R12        2.31711  -0.08419   0.00000  -0.06450  -0.06450   2.25261
   R13        2.31700  -0.10452   0.00000  -0.08005  -0.08005   2.23695
   R14        2.70119  -0.00905   0.00000  -0.01385  -0.01385   2.68734
   R15        2.07331  -0.01621   0.00000  -0.02872  -0.02872   2.04459
   R16        2.07467  -0.01564   0.00000  -0.02778  -0.02778   2.04689
   R17        2.67683  -0.05683   0.00000  -0.08385  -0.08385   2.59298
   R18        2.32000  -0.10148   0.00000  -0.07823  -0.07823   2.24177
   R19        2.32580  -0.08765   0.00000  -0.06843  -0.06843   2.25737
   R20        2.66853  -0.04156   0.00000  -0.06056  -0.06056   2.60797
   R21        2.31793  -0.10363   0.00000  -0.07953  -0.07953   2.23840
   R22        2.32235  -0.08706   0.00000  -0.06746  -0.06746   2.25489
    A1        2.27678  -0.00523   0.00000  -0.01161  -0.01161   2.26517
    A2        2.04095   0.00447   0.00000   0.00992   0.00992   2.05087
    A3        1.96542   0.00077   0.00000   0.00172   0.00172   1.96713
    A4        1.96540   0.00569   0.00000   0.01262   0.01262   1.97802
    A5        1.91456  -0.01918   0.00000  -0.04904  -0.04920   1.86536
    A6        1.91496   0.00847   0.00000   0.02032   0.01980   1.93476
    A7        1.91245   0.00641   0.00000   0.01582   0.01562   1.92806
    A8        1.94757   0.00012   0.00000  -0.00509  -0.00511   1.94245
    A9        1.88712   0.00317   0.00000   0.00610   0.00618   1.89329
   A10        1.88659   0.00145   0.00000   0.01317   0.01296   1.89956
   A11        1.90157  -0.00117   0.00000  -0.00346  -0.00379   1.89777
   A12        1.96896   0.00385   0.00000   0.02029   0.02010   1.98906
   A13        1.77119  -0.00024   0.00000  -0.00026  -0.00069   1.77050
   A14        2.03387   0.00218   0.00000   0.00797   0.00794   2.04182
   A15        1.88590  -0.01048   0.00000  -0.04575  -0.04574   1.84016
   A16        1.88190   0.00488   0.00000   0.01698   0.01689   1.89878
   A17        2.04151   0.01966   0.00000   0.04362   0.04362   2.08513
   A18        2.04617   0.00843   0.00000   0.01874   0.01873   2.06490
   A19        1.96586  -0.00531   0.00000  -0.01176  -0.01177   1.95409
   A20        2.27100  -0.00310   0.00000  -0.00685  -0.00686   2.26414
   A21        1.94898  -0.01977   0.00000  -0.04883  -0.04887   1.90010
   A22        1.90908   0.00724   0.00000   0.01993   0.02014   1.92921
   A23        1.90518  -0.00073   0.00000  -0.00837  -0.00845   1.89673
   A24        1.91249   0.00657   0.00000   0.01764   0.01778   1.93027
   A25        1.88066   0.00827   0.00000   0.01899   0.01842   1.89907
   A26        1.90691  -0.00141   0.00000   0.00111   0.00097   1.90789
   A27        1.96893   0.00409   0.00000   0.00908   0.00908   1.97801
   A28        1.96687  -0.00026   0.00000  -0.00054  -0.00055   1.96632
   A29        2.04071   0.00574   0.00000   0.01276   0.01276   2.05347
   A30        2.27540  -0.00545   0.00000  -0.01207  -0.01208   2.26332
   A31        2.00626   0.02222   0.00000   0.04932   0.04932   2.05558
   A32        1.96460  -0.00286   0.00000  -0.00634  -0.00634   1.95826
   A33        2.04448   0.00814   0.00000   0.01807   0.01807   2.06255
   A34        2.27375  -0.00529   0.00000  -0.01174  -0.01174   2.26202
    D1       -3.13210  -0.00063   0.00000  -0.00361  -0.00359  -3.13569
    D2       -0.01186   0.00040   0.00000   0.00255   0.00256  -0.00930
    D3        3.13783  -0.00008   0.00000  -0.00041  -0.00043   3.13741
    D4        3.09033   0.00149   0.00000   0.00729   0.00735   3.09768
    D5       -1.04754  -0.00541   0.00000  -0.01800  -0.01835  -1.06589
    D6        1.02119   0.00528   0.00000   0.01975   0.02004   1.04124
    D7       -3.06569   0.00588   0.00000   0.02662   0.02672  -3.03898
    D8        0.93010   0.00075   0.00000   0.00207   0.00216   0.93226
    D9       -1.07889  -0.00641   0.00000  -0.02610  -0.02601  -1.10489
   D10        1.09157   0.00828   0.00000   0.03803   0.03789   1.12947
   D11       -1.19582   0.00314   0.00000   0.01348   0.01334  -1.18248
   D12        3.07838  -0.00402   0.00000  -0.01469  -0.01483   3.06355
   D13       -0.98096   0.00443   0.00000   0.02104   0.02109  -0.95987
   D14        3.01483  -0.00070   0.00000  -0.00351  -0.00346   3.01137
   D15        1.00585  -0.00786   0.00000  -0.03168  -0.03164   0.97421
   D16       -1.28326  -0.00507   0.00000  -0.02568  -0.02553  -1.30879
   D17        0.96864   0.00110   0.00000   0.00633   0.00626   0.97490
   D18        3.08934   0.00078   0.00000  -0.00183  -0.00192   3.08742
   D19        0.41323  -0.00151   0.00000  -0.00787  -0.00769   0.40555
   D20        2.53321  -0.00126   0.00000  -0.00409  -0.00415   2.52906
   D21       -1.66437   0.00092   0.00000   0.00416   0.00397  -1.66040
   D22       -1.80585  -0.00544   0.00000  -0.02928  -0.02915  -1.83500
   D23        0.31414  -0.00519   0.00000  -0.02550  -0.02562   0.28852
   D24        2.39974  -0.00301   0.00000  -0.01725  -0.01749   2.38225
   D25        2.35453   0.00297   0.00000   0.01192   0.01222   2.36675
   D26       -1.80867   0.00322   0.00000   0.01570   0.01576  -1.79292
   D27        0.27693   0.00540   0.00000   0.02395   0.02388   0.30081
   D28       -3.00370  -0.00021   0.00000  -0.01079  -0.01091  -3.01461
   D29       -1.00521  -0.00552   0.00000  -0.03178  -0.03163  -1.03684
   D30        1.20701  -0.00642   0.00000  -0.04046  -0.04049   1.16652
   D31        0.00732  -0.00054   0.00000  -0.00309  -0.00309   0.00423
   D32        3.13169   0.00063   0.00000   0.00369   0.00370   3.13539
   D33        3.12081   0.00142   0.00000   0.00820   0.00820   3.12901
   D34        3.09388   0.00292   0.00000   0.01244   0.01250   3.10639
   D35        0.97588   0.00232   0.00000   0.00742   0.00764   0.98352
   D36       -1.09721  -0.00448   0.00000  -0.01484  -0.01512  -1.11233
   D37       -3.13922   0.00063   0.00000   0.00391   0.00396  -3.13526
   D38        0.02136  -0.00053   0.00000  -0.00324  -0.00328   0.01808
   D39       -3.11937  -0.00153   0.00000  -0.00874  -0.00870  -3.12807
   D40        3.07211  -0.00356   0.00000  -0.02419  -0.02419   3.04792
   D41       -0.09520  -0.00371   0.00000  -0.02448  -0.02448  -0.11968
   D42        3.11159   0.00009   0.00000   0.00025   0.00025   3.11184
         Item               Value     Threshold  Converged?
 Maximum Force            0.104520     0.000450     NO 
 RMS     Force            0.030056     0.000300     NO 
 Maximum Displacement     0.313972     0.001800     NO 
 RMS     Displacement     0.094001     0.001200     NO 
 Predicted change in Energy=-5.669718D-02
 GradGradGradGradGradGradGradGradGradGradGradGradGradGradGradGradGradGrad

                          Input orientation:                          
 ---------------------------------------------------------------------
 Center     Atomic      Atomic             Coordinates (Angstroms)
 Number     Number       Type             X           Y           Z
 ---------------------------------------------------------------------
      1          8           0        3.653963   -0.471842    0.595901
      2          7           0        3.158936   -0.702293   -0.466227
      3          8           0        3.626437   -1.220820   -1.424941
      4          8           0        1.853029   -0.320707   -0.653561
      5          6           0        1.278000    0.297322    0.489022
      6          6           0       -0.148442    0.718186    0.098523
      7          8           0       -0.714121    1.463391    1.169518
      8          7           0       -1.134596    0.808306    2.299646
      9          8           0       -1.005998   -0.375799    2.347558
     10          8           0       -1.575565    1.554640    3.105736
     11          6           0       -1.007098   -0.433697   -0.488749
     12          8           0       -0.479938   -1.675568   -0.039111
     13          7           0       -1.200639   -2.760275   -0.471294
     14          8           0       -0.754744   -3.789065   -0.083923
     15          8           0       -2.147669   -2.554197   -1.169591
     16          8           0        0.110724    1.674835   -0.936643
     17          7           0       -0.959278    2.391701   -1.432436
     18          8           0       -0.621523    3.221685   -2.207102
     19          8           0       -2.055228    2.093480   -1.066691
     20          1           0        1.270636   -0.381002    1.330680
     21          1           0        1.837060    1.187364    0.761016
     22          1           0       -2.040971   -0.327795   -0.187909
     23          1           0       -0.942975   -0.397851   -1.569422
 ---------------------------------------------------------------------
                    Distance matrix (angstroms):
                    1          2          3          4          5
     1  O    0.000000
     2  N    1.194268   0.000000
     3  O    2.155349   1.185985   0.000000
     4  O    2.197126   1.373352   2.133121   0.000000
     5  C    2.499647   2.334449   3.388682   1.420604   0.000000
     6  C    4.015200   3.643549   4.508924   2.377145   1.537645
     7  O    4.811894   4.729315   5.725090   3.618962   2.406520
     8  N    5.241357   5.326010   6.376311   4.349944   3.059426
     9  O    4.979233   5.036930   6.033678   4.145334   3.020579
    10  O    6.144417   6.345720   7.435794   5.422592   4.070734
    11  C    4.785751   4.174744   4.792250   2.867099   2.590772
    12  O    4.352165   3.790923   4.357710   2.766936   2.694730
    13  N    5.472019   4.820914   5.155582   3.912749   4.051513
    14  O    5.559031   4.999122   5.252519   4.376583   4.599878
    15  O    6.411871   5.664303   5.931559   4.610894   4.755772
    16  O    4.417178   3.894050   4.580774   2.664198   2.300565
    17  N    5.796208   5.240806   5.837735   3.984078   3.617159
    18  O    6.307040   5.720150   6.196192   4.591888   4.407854
    19  O    6.476107   5.946799   6.587431   4.612315   4.093512
    20  H    2.495676   2.626363   3.721363   2.068824   1.081002
    21  H    2.466043   2.612333   3.712093   2.067743   1.085681
    22  H    5.750425   5.220800   5.869179   3.921750   3.444500
    23  H    5.081923   4.258568   4.645178   2.943195   3.106959
                    6          7          8          9         10
     6  C    0.000000
     7  O    1.422095   0.000000
     8  N    2.413621   1.372270   0.000000
     9  O    2.643930   2.203541   1.192031   0.000000
    10  O    3.432152   2.121167   1.183744   2.150776   0.000000
    11  C    1.552100   2.536657   3.055156   2.836899   4.146923
    12  O    2.420515   3.371749   3.473901   2.768091   4.639473
    13  N    3.678519   4.557227   4.518544   3.697233   5.617313
    14  O    4.551506   5.400098   5.192447   4.198287   6.277170
    15  O    4.038999   4.864926   4.936430   4.291755   5.957203
    16  O    1.433149   2.271782   3.574251   4.029659   4.381649
    17  N    2.408723   2.773450   4.057871   4.685040   4.655694
    18  O    3.436164   3.808115   5.137940   5.816756   5.649379
    19  O    2.623927   2.682576   3.719068   4.342272   4.234333
    20  H    2.177201   2.714225   2.852803   2.493417   3.872775
    21  H    2.145050   2.598382   3.367760   3.611589   4.156755
    22  H    2.181236   2.609883   2.881002   2.738991   3.822076
    23  H    2.158441   3.319397   4.057244   3.917550   5.105830
                   11         12         13         14         15
    11  C    0.000000
    12  O    1.422081   0.000000
    13  N    2.334679   1.372145   0.000000
    14  O    3.389109   2.131759   1.186292   0.000000
    15  O    2.502192   2.198021   1.194551   2.154951   0.000000
    16  O    2.428177   3.518472   4.648271   5.597354   4.799929
    17  N    2.979212   4.325945   5.246418   6.329470   5.093453
    18  O    4.057490   5.357547   6.255577   7.326408   6.063527
    19  O    2.796287   4.212266   4.964248   6.104214   4.649735
    20  H    2.915677   2.572303   3.874952   4.209295   4.760141
    21  H    3.504138   3.768960   5.131282   5.674171   5.796946
    22  H    1.081949   2.067718   2.589097   3.693993   2.435559
    23  H    1.083167   2.046659   2.617885   3.707084   2.502194
                   16         17         18         19         20
    16  O    0.000000
    17  N    1.380077   0.000000
    18  O    2.131431   1.184508   0.000000
    19  O    2.209870   1.193236   2.151486   0.000000
    20  H    3.273013   4.505020   5.392172   4.788718   0.000000
    21  H    2.469799   3.752488   4.358075   4.394481   1.762136
    22  H    3.033302   3.180340   4.323283   2.575856   3.643582
    23  H    2.409714   2.792962   3.689310   2.774271   3.648418
                   21         22         23
    21  H    0.000000
    22  H    4.270280   0.000000
    23  H    3.958844   1.766092   0.000000
 Stoichiometry    C3H4N4O12
 Framework group  C1[X(C3H4N4O12)]
 Deg. of freedom    63
 Full point group                 C1      NOp   1
 Largest Abelian subgroup         C1      NOp   1
 Largest concise Abelian subgroup C1      NOp   1
                         Standard orientation:                         
 ---------------------------------------------------------------------
 Center     Atomic      Atomic             Coordinates (Angstroms)
 Number     Number       Type             X           Y           Z
 ---------------------------------------------------------------------
      1          8           0       -2.741570   -2.020385    1.546269
      2          7           0       -2.720414   -1.777453    0.377162
      3          8           0       -3.547841   -1.963877   -0.451796
      4          8           0       -1.582445   -1.199713   -0.130122
      5          6           0       -0.584097   -0.965434    0.853001
      6          6           0        0.635324   -0.381512    0.120607
      7          8           0        1.708275   -0.258911    1.045863
      8          7           0        1.686558    0.750866    1.974843
      9          8           0        0.756627    1.496627    1.977552
     10          8           0        2.637467    0.724781    2.679358
     11          6           0        0.311606    0.861134   -0.751202
     12          8           0       -0.874439    1.472009   -0.258817
     13          7           0       -1.222019    2.611301   -0.939981
     14          8           0       -2.208709    3.114671   -0.515304
     15          8           0       -0.527593    2.945160   -1.852813
     16          8           0        0.996868   -1.468319   -0.740817
     17          7           0        2.170305   -1.357078   -1.458650
     18          8           0        2.424533   -2.347253   -2.056965
     19          8           0        2.756416   -0.318330   -1.422757
     20          1           0       -0.945473   -0.288989    1.614837
     21          1           0       -0.288630   -1.898024    1.323828
     22          1           0        1.135869    1.561790   -0.734274
     23          1           0        0.139526    0.534970   -1.769660
 ---------------------------------------------------------------------
 Rotational constants (GHZ):           0.3667449           0.3108489           0.2595019
 Standard basis: 6-31G(d) (6D, 7F)
 There are   293 symmetry adapted cartesian basis functions of A   symmetry.
 There are   293 symmetry adapted basis functions of A   symmetry.
   293 basis functions,   548 primitive gaussians,   293 cartesian basis functions
    73 alpha electrons       73 beta electrons
       nuclear repulsion energy      1680.1360551706 Hartrees.
 NAtoms=   23 NActive=   23 NUniq=   23 SFac= 1.00D+00 NAtFMM=   60 NAOKFM=F Big=F
 Integral buffers will be    131072 words long.
 Raffenetti 1 integral format.
 Two-electron integral symmetry is turned on.
 One-electron integrals computed using PRISM.
 NBasis=   293 RedAO= T EigKep=  1.47D-03  NBF=   293
 NBsUse=   293 1.00D-06 EigRej= -1.00D+00 NBFU=   293
 Initial guess from the checkpoint file:  "C:\g16w\Scratch\Gau-11516.chk"
 B after Tr=     0.000000    0.000000    0.000000
         Rot=    0.998394    0.024932   -0.028024   -0.042453 Ang=   6.50 deg.
 ExpMin= 1.61D-01 ExpMax= 5.48D+03 ExpMxC= 8.25D+02 IAcc=3 IRadAn=         5 AccDes= 0.00D+00
 Harris functional with IExCor=  205 and IRadAn=       5 diagonalized for initial guess.
 HarFok:  IExCor=  205 AccDes= 0.00D+00 IRadAn=         5 IDoV= 1 UseB2=F ITyADJ=14
 ICtDFT=  3500011 ScaDFX=  1.000000  1.000000  1.000000  1.000000
 FoFCou: FMM=F IPFlag=           0 FMFlag=      100000 FMFlg1=           0
         NFxFlg=           0 DoJE=T BraDBF=F KetDBF=T FulRan=T
         wScrn=  0.000000 ICntrl=       500 IOpCl=  0 I1Cent=   200000004 NGrid=           0
         NMat0=    1 NMatS0=      1 NMatT0=    0 NMatD0=    1 NMtDS0=    0 NMtDT0=    0
 Petite list used in FoFCou.
 Requested convergence on RMS density matrix=1.00D-08 within 128 cycles.
 Requested convergence on MAX density matrix=1.00D-06.
 Requested convergence on             energy=1.00D-06.
 No special actions if energy rises.
 Integral accuracy reduced to 1.0D-05 until final iterations.
 Initial convergence to 1.0D-05 achieved.  Increase integral accuracy.
 SCF Done:  E(RHF) =  -1231.34759194     A.U. after   15 cycles
            NFock= 15  Conv=0.69D-08     -V/T= 2.0030
 Calling FoFJK, ICntrl=      2127 FMM=F ISym2X=0 I1Cent= 0 IOpClX= 0 NMat=1 NMatS=1 NMatT=0.
 ***** Axes restored to original set *****
 -------------------------------------------------------------------
 Center     Atomic                   Forces (Hartrees/Bohr)
 Number     Number              X              Y              Z
 -------------------------------------------------------------------
      1        8          -0.010291401   -0.005415557   -0.022736841
      2        7          -0.001505446   -0.003319571   -0.011495954
      3        8          -0.010391904    0.013084243    0.026178850
      4        8           0.021536707   -0.002122658    0.010711139
      5        6           0.002775403    0.005330574    0.008139716
      6        6           0.016029086   -0.014591901   -0.016896261
      7        8          -0.000647948   -0.010006838    0.006752699
      8        7          -0.005695091    0.011187627    0.010869992
      9        8          -0.002231913    0.023016508   -0.003484885
     10        8           0.011667253   -0.021667667   -0.022266652
     11        6          -0.010010984    0.005988645    0.001877560
     12        8          -0.017549921   -0.013043103   -0.009035162
     13        7           0.009888252   -0.005049226    0.004461451
     14        8          -0.013509469    0.025553917   -0.010506723
     15        8           0.019674118   -0.004979657    0.015440535
     16        8          -0.025015884    0.009251765    0.014275281
     17        7           0.000876998    0.007808603   -0.013406589
     18        8          -0.009455958   -0.022560453    0.023443337
     19        8           0.024499514    0.004449338   -0.007817438
     20        1          -0.002574658    0.000548816   -0.005025696
     21        1          -0.003778390   -0.003156658   -0.003329091
     22        1           0.005058339   -0.001359690   -0.001512301
     23        1           0.000653296    0.001052941    0.005363034
 -------------------------------------------------------------------
 Cartesian Forces:  Max     0.026178850 RMS     0.012525438

 GradGradGradGradGradGradGradGradGradGradGradGradGradGradGradGradGradGrad
 Berny optimization.
 Using GEDIIS/GDIIS optimizer.
 FormGI is forming the generalized inverse of G from B-inverse, IUseBI=4.
 Internal  Forces:  Max     0.033836299 RMS     0.009919447
 Search for a local minimum.
 Step number   2 out of a maximum of  108
 All quantities printed in internal units (Hartrees-Bohrs-Radians)
 Mixed Optimization -- RFO/linear search
 Update second derivatives using D2CorX and points    1    2
 DE= -5.80D-02 DEPred=-5.67D-02 R= 1.02D+00
 TightC=F SS=  1.41D+00  RLast= 3.22D-01 DXNew= 5.0454D-01 9.6505D-01
 Trust test= 1.02D+00 RLast= 3.22D-01 DXMaxT set to 5.05D-01
 ITU=  1  0
 Use linear search instead of GDIIS.
     Eigenvalues ---    0.00230   0.00230   0.00902   0.01072   0.01076
     Eigenvalues ---    0.01135   0.01207   0.01207   0.01297   0.01303
     Eigenvalues ---    0.02891   0.02893   0.02913   0.02984   0.04217
     Eigenvalues ---    0.05164   0.05334   0.05838   0.05868   0.06321
     Eigenvalues ---    0.09886   0.10959   0.11192   0.13521   0.13669
     Eigenvalues ---    0.17415   0.18657   0.22012   0.22184   0.24569
     Eigenvalues ---    0.24995   0.24999   0.24999   0.25000   0.25000
     Eigenvalues ---    0.25000   0.25000   0.25000   0.25000   0.25000
     Eigenvalues ---    0.25665   0.26254   0.27253   0.33787   0.33943
     Eigenvalues ---    0.34057   0.34345   0.36828   0.40090   0.41028
     Eigenvalues ---    0.41098   0.42165   0.42963   0.43525   0.44395
     Eigenvalues ---    0.89925   0.90799   0.91087   0.91660   0.92087
     Eigenvalues ---    0.92347   0.92656   0.93187
 RFO step:  Lambda=-6.59675020D-03 EMin= 2.29959031D-03
 Quartic linear search produced a step of  0.41698.
 Iteration  1 RMS(Cart)=  0.11819759 RMS(Int)=  0.00805655
 Iteration  2 RMS(Cart)=  0.00995141 RMS(Int)=  0.00036092
 Iteration  3 RMS(Cart)=  0.00007721 RMS(Int)=  0.00035754
 Iteration  4 RMS(Cart)=  0.00000001 RMS(Int)=  0.00035754
 Variable       Old X    -DE/DX   Delta X   Delta X   Delta X     New X
                                 (Linear)    (Quad)   (Total)
    R1        2.25684  -0.02553  -0.02863   0.00004  -0.02859   2.22825
    R2        2.24119  -0.03098  -0.03274  -0.00217  -0.03491   2.20628
    R3        2.59526  -0.02341  -0.03430  -0.01856  -0.05286   2.54240
    R4        2.68455  -0.00337  -0.00730   0.00096  -0.00634   2.67821
    R5        2.90573  -0.00466  -0.01578   0.00766  -0.00812   2.89761
    R6        2.04280  -0.00424  -0.01099   0.00274  -0.00825   2.03454
    R7        2.05164  -0.00537  -0.01063  -0.00269  -0.01332   2.03832
    R8        2.68737  -0.00603  -0.01142  -0.00137  -0.01280   2.67457
    R9        2.93304  -0.00516  -0.01347   0.00001  -0.01346   2.91959
   R10        2.70826  -0.01426  -0.02098  -0.01662  -0.03760   2.67066
   R11        2.59321  -0.01939  -0.02707  -0.01592  -0.04299   2.55023
   R12        2.25261  -0.02324  -0.02689   0.00175  -0.02514   2.22747
   R13        2.23695  -0.03317  -0.03338  -0.00436  -0.03774   2.19921
   R14        2.68734  -0.00261  -0.00578   0.00096  -0.00481   2.68253
   R15        2.04459  -0.00539  -0.01198  -0.00022  -0.01220   2.03239
   R16        2.04689  -0.00528  -0.01158  -0.00052  -0.01210   2.03479
   R17        2.59298  -0.02366  -0.03496  -0.01821  -0.05318   2.53980
   R18        2.24177  -0.03067  -0.03262  -0.00189  -0.03451   2.20726
   R19        2.25737  -0.02548  -0.02853  -0.00004  -0.02858   2.22880
   R20        2.60797  -0.01849  -0.02525  -0.01699  -0.04225   2.56572
   R21        2.23840  -0.03384  -0.03316  -0.00576  -0.03892   2.19947
   R22        2.25489  -0.02601  -0.02813  -0.00115  -0.02928   2.22561
    A1        2.26517  -0.00198  -0.00484  -0.00089  -0.00573   2.25944
    A2        2.05087  -0.00094   0.00414  -0.01369  -0.00956   2.04131
    A3        1.96713   0.00291   0.00072   0.01459   0.01530   1.98244
    A4        1.97802   0.00992   0.00526   0.04383   0.04909   2.02711
    A5        1.86536  -0.00523  -0.02051   0.00802  -0.01264   1.85272
    A6        1.93476   0.00223   0.00826  -0.00537   0.00258   1.93735
    A7        1.92806   0.00143   0.00651  -0.00935  -0.00300   1.92506
    A8        1.94245  -0.00087  -0.00213  -0.00408  -0.00625   1.93621
    A9        1.89329   0.00036   0.00257  -0.00556  -0.00299   1.89031
   A10        1.89956   0.00197   0.00541   0.01580   0.02113   1.92068
   A11        1.89777   0.00059  -0.00158  -0.00151  -0.00263   1.89514
   A12        1.98906   0.00281   0.00838   0.01850   0.02554   2.01460
   A13        1.77050   0.00050  -0.00029   0.03302   0.03105   1.80156
   A14        2.04182  -0.00216   0.00331  -0.04349  -0.03977   2.00205
   A15        1.84016  -0.00620  -0.01907  -0.03153  -0.05012   1.79004
   A16        1.89878   0.00417   0.00704   0.03292   0.03809   1.93687
   A17        2.08513   0.00264   0.01819  -0.02297  -0.00478   2.08035
   A18        2.06490  -0.00434   0.00781  -0.04000  -0.03220   2.03270
   A19        1.95409   0.00317  -0.00491   0.02765   0.02273   1.97682
   A20        2.26414   0.00117  -0.00286   0.01240   0.00952   2.27366
   A21        1.90010  -0.00751  -0.02038  -0.00440  -0.02485   1.87525
   A22        1.92921   0.00306   0.00840  -0.00124   0.00702   1.93623
   A23        1.89673  -0.00020  -0.00353   0.00903   0.00553   1.90226
   A24        1.93027   0.00151   0.00742  -0.01951  -0.01212   1.91815
   A25        1.89907   0.00341   0.00768   0.01206   0.01957   1.91864
   A26        1.90789  -0.00030   0.00041   0.00474   0.00506   1.91294
   A27        1.97801   0.00989   0.00379   0.04670   0.05049   2.02850
   A28        1.96632   0.00279  -0.00023   0.01591   0.01566   1.98198
   A29        2.05347  -0.00068   0.00532  -0.01466  -0.00937   2.04410
   A30        2.26332  -0.00211  -0.00504  -0.00117  -0.00622   2.25710
   A31        2.05558   0.00491   0.02057  -0.01537   0.00519   2.06077
   A32        1.95826   0.00132  -0.00264   0.01284   0.01017   1.96843
   A33        2.06255  -0.00270   0.00754  -0.03035  -0.02285   2.03970
   A34        2.26202   0.00139  -0.00489   0.01789   0.01296   2.27498
    D1       -3.13569  -0.00037  -0.00150  -0.00272  -0.00421  -3.13990
    D2       -0.00930   0.00026   0.00107   0.00265   0.00373  -0.00557
    D3        3.13741  -0.00006  -0.00018   0.00026   0.00008   3.13749
    D4        3.09768   0.00084   0.00306   0.01308   0.01619   3.11387
    D5       -1.06589  -0.00221  -0.00765   0.01000   0.00219  -1.06371
    D6        1.04124   0.00268   0.00836   0.02010   0.02857   1.06981
    D7       -3.03898   0.00256   0.01114   0.03354   0.04471  -2.99426
    D8        0.93226   0.00260   0.00090   0.07959   0.08069   1.01296
    D9       -1.10489  -0.00390  -0.01085   0.01251   0.00156  -1.10334
   D10        1.12947   0.00368   0.01580   0.03740   0.05310   1.18257
   D11       -1.18248   0.00372   0.00556   0.08345   0.08908  -1.09340
   D12        3.06355  -0.00278  -0.00618   0.01637   0.00995   3.07350
   D13       -0.95987   0.00156   0.00879   0.02395   0.03277  -0.92710
   D14        3.01137   0.00160  -0.00144   0.07000   0.06875   3.08012
   D15        0.97421  -0.00490  -0.01319   0.00292  -0.01038   0.96383
   D16       -1.30879  -0.00289  -0.01064  -0.04791  -0.05870  -1.36749
   D17        0.97490  -0.00022   0.00261  -0.06153  -0.05957   0.91533
   D18        3.08742  -0.00092  -0.00080  -0.07050  -0.07050   3.01692
   D19        0.40555  -0.00056  -0.00320   0.05695   0.05344   0.45899
   D20        2.52906  -0.00163  -0.00173   0.02909   0.02695   2.55602
   D21       -1.66040  -0.00027   0.00166   0.03983   0.04106  -1.61934
   D22       -1.83500  -0.00215  -0.01215   0.08285   0.07065  -1.76435
   D23        0.28852  -0.00323  -0.01068   0.05499   0.04416   0.33268
   D24        2.38225  -0.00186  -0.00729   0.06573   0.05826   2.44051
   D25        2.36675   0.00419   0.00510   0.12803   0.13370   2.50045
   D26       -1.79292   0.00312   0.00657   0.10017   0.10721  -1.68570
   D27        0.30081   0.00448   0.00996   0.11090   0.12132   0.42213
   D28       -3.01461  -0.00135  -0.00455  -0.10951  -0.11341  -3.12802
   D29       -1.03684  -0.00262  -0.01319  -0.10905  -0.12220  -1.15904
   D30        1.16652  -0.00663  -0.01688  -0.16191  -0.17949   0.98704
   D31        0.00423  -0.00053  -0.00129  -0.01812  -0.01942  -0.01519
   D32        3.13539   0.00017   0.00154  -0.01305  -0.01150   3.12389
   D33        3.12901   0.00085   0.00342   0.00613   0.00955   3.13856
   D34        3.10639   0.00092   0.00521  -0.01217  -0.00672   3.09967
   D35        0.98352   0.00106   0.00319   0.00458   0.00768   0.99120
   D36       -1.11233  -0.00165  -0.00631   0.00306  -0.00341  -1.11574
   D37       -3.13526   0.00038   0.00165   0.00052   0.00219  -3.13307
   D38        0.01808  -0.00040  -0.00137  -0.00607  -0.00746   0.01062
   D39       -3.12807  -0.00091  -0.00363  -0.00750  -0.01111  -3.13918
   D40        3.04792  -0.00317  -0.01009  -0.09180  -0.10177   2.94614
   D41       -0.11968  -0.00277  -0.01021  -0.07752  -0.08784  -0.20753
   D42        3.11184   0.00038   0.00010   0.01542   0.01562   3.12746
         Item               Value     Threshold  Converged?
 Maximum Force            0.033836     0.000450     NO 
 RMS     Force            0.009919     0.000300     NO 
 Maximum Displacement     0.434526     0.001800     NO 
 RMS     Displacement     0.120108     0.001200     NO 
 Predicted change in Energy=-1.215591D-02
 GradGradGradGradGradGradGradGradGradGradGradGradGradGradGradGradGradGrad

                          Input orientation:                          
 ---------------------------------------------------------------------
 Center     Atomic      Atomic             Coordinates (Angstroms)
 Number     Number       Type             X           Y           Z
 ---------------------------------------------------------------------
      1          8           0        3.677992   -0.550253    0.524910
      2          7           0        3.180588   -0.668734   -0.537595
      3          8           0        3.630730   -1.103445   -1.523233
      4          8           0        1.908815   -0.249004   -0.665903
      5          6           0        1.306593    0.284665    0.500768
      6          6           0       -0.104604    0.722073    0.090454
      7          8           0       -0.684227    1.439962    1.163680
      8          7           0       -1.184145    0.759911    2.216686
      9          8           0       -1.116442   -0.415639    2.162866
     10          8           0       -1.617772    1.451256    3.046373
     11          6           0       -0.998871   -0.391065   -0.499606
     12          8           0       -0.542530   -1.627647    0.027364
     13          7           0       -1.235946   -2.720134   -0.335946
     14          8           0       -0.826514   -3.709529    0.130698
     15          8           0       -2.149595   -2.559413   -1.064278
     16          8           0        0.136022    1.736596   -0.863549
     17          7           0       -0.935560    2.355391   -1.422311
     18          8           0       -0.642140    3.303749   -2.029939
     19          8           0       -1.989780    1.863539   -1.238512
     20          1           0        1.268305   -0.450762    1.286149
     21          1           0        1.847263    1.155749    0.835940
     22          1           0       -2.029523   -0.237655   -0.233321
     23          1           0       -0.898662   -0.389611   -1.571694
 ---------------------------------------------------------------------
                    Distance matrix (angstroms):
                    1          2          3          4          5
     1  O    0.000000
     2  N    1.179137   0.000000
     3  O    2.122062   1.167512   0.000000
     4  O    2.153781   1.345379   2.104775   0.000000
     5  C    2.514201   2.345000   3.380095   1.417249   0.000000
     6  C    4.014424   3.622331   4.459733   2.359856   1.533349
     7  O    4.837141   4.719929   5.683948   3.594974   2.395313
     8  N    5.312157   5.355183   6.375117   4.346680   3.061700
     9  O    5.068295   5.081438   6.049467   4.145103   3.020611
    10  O    6.197494   6.353223   7.413135   5.395247   4.048821
    11  C    4.790409   4.188845   4.794633   2.915900   2.602407
    12  O    4.384192   3.885911   4.482771   2.896613   2.701907
    13  N    5.440243   4.873877   5.263826   4.013088   4.024104
    14  O    5.516067   5.074437   5.421640   4.482391   4.543201
    15  O    6.365769   5.680045   5.978515   4.686938   4.741664
    16  O    4.438812   3.893744   4.551264   2.669170   2.310780
    17  N    5.789585   5.183698   5.729287   3.930075   3.607407
    18  O    6.328042   5.711476   6.159344   4.581486   4.395100
    19  O    6.407784   5.799690   6.361933   4.470991   4.047717
    20  H    2.529026   2.651486   3.728226   2.064331   1.076634
    21  H    2.521656   2.644446   3.721614   2.057340   1.078634
    22  H    5.766140   5.236762   5.869577   3.962041   3.455630
    23  H    5.036598   4.217529   4.585553   2.953330   3.100467
                    6          7          8          9         10
     6  C    0.000000
     7  O    1.415323   0.000000
     8  N    2.384891   1.349522   0.000000
[...]
 89651,0.00765721,-0.13522181,0.01586964,0.18992994,-0.58392628,0.15584
 862,-0.27347717,0.72622659,0.00024369,-0.00018247,0.00051097,-0.000461
 49,0.00031534,-0.00084615,0.00007336,-0.00000907,0.00026433,0.00024720
 ,-0.00019095,0.00015082,-0.00008986,0.00055938,-0.00010933,0.00001540,
 -0.00083879,-0.00012919,-0.00010667,0.00007484,0.00109666,0.00006660,0
 .00137084,-0.00106950,0.00004477,-0.00067588,0.00064988,0.00006672,-0.
 00043956,0.00007331,-0.00470710,0.00052869,0.00322967,0.00608555,-0.00
 674042,0.03030390,-0.09592080,0.17333189,-0.19738556,0.16351423,-0.225
 68442,0.17073686,-0.00031822,-0.00015497,0.00026239,0.00167997,0.00014
 020,-0.00080102,-0.00042619,-0.00001094,0.00042367,-0.00096201,-0.0006
 0548,0.00013015,0.00024574,0.00154420,-0.00022982,0.00114190,0.0004860
 6,0.00014235,0.00041875,-0.00053041,-0.00038287,-0.00153233,0.00227839
 ,0.00084268,0.00111113,-0.00160782,-0.00045733,0.00081632,-0.00114906,
 -0.00086866,-0.01015917,0.01438459,-0.00527703,-0.04801225,-0.05015516
 ,-0.05029055,-0.50539456,0.02501750,-0.25620286,-0.05429333,0.08538813
 ,-0.07029433,0.61300534,-0.00076223,0.00047536,-0.00010461,0.00270855,
 -0.00173145,-0.00059108,-0.00081647,0.00073448,0.00067757,-0.00181750,
 0.00055794,0.00022243,0.00059579,-0.00146877,-0.00079036,-0.00169934,0
 .00444577,-0.00033774,0.00031946,-0.00054669,-0.00185842,-0.00113586,0
 .00066058,0.00279168,0.00021451,-0.00047207,-0.00116764,0.00065552,-0.
 00051452,-0.00105395,-0.00445948,-0.00045566,-0.00438937,-0.05667033,0
 .00313827,-0.03558750,0.04821571,-0.17922088,0.03572664,0.08508947,-0.
 00663854,0.05963653,-0.06719847,0.18635466,-0.00013248,-0.00008295,0.0
 0043294,0.00111827,-0.00004303,-0.00105463,-0.00030938,0.00010168,0.00
 053542,-0.00080167,-0.00049110,0.00019536,0.00030517,0.00099373,-0.000
 17825,0.00009529,0.00003580,0.00063480,0.00017090,-0.00010482,0.000518
 92,-0.00055798,0.00221275,0.00003981,0.00032168,-0.00132440,0.00003391
 ,0.00042209,-0.00083960,-0.00043761,-0.00402177,0.00896638,-0.00651339
 ,-0.04997511,-0.03146120,0.00221439,-0.25747512,0.02034634,-0.29427550
 ,-0.07035894,0.05991382,-0.00736158,0.38092675,-0.05298719,0.30241213,
 -0.00196897,0.00054218,0.00087013,0.00462572,-0.00215313,-0.00329455,-
 0.00145130,0.00105136,0.00170722,-0.00292909,0.00376894,-0.00029921,0.
 00407019,0.03734823,-0.03641332,-0.13772814,-0.02961110,0.02031580,-0.
 00354524,-0.01636493,0.02675117,-0.00107187,0.00442055,0.00381080,0.00
 078859,-0.00118988,-0.00038660,-0.00010348,-0.00075675,-0.00001429,0.0
 0021274,-0.01824136,0.01599008,-0.00225971,-0.00256782,-0.00133708,-0.
 00037490,-0.00060489,0.00021894,0.00031770,-0.00078001,0.00014007,0.00
 084916,0.00026893,0.00038505,0.43227532,0.00195806,-0.00035840,-0.0002
 0850,-0.00515208,0.00186356,0.00218527,0.00149204,-0.00082340,-0.00137
 358,0.00423646,-0.00277111,0.00082334,0.00229090,-0.02275945,0.0223949
 5,-0.04455674,-0.16115993,0.06892318,-0.00437028,0.00759697,0.00786269
 ,0.00485487,0.00046045,-0.00657908,-0.00094449,0.00224748,0.00128058,-
 0.00258038,0.00168492,0.00365396,-0.00619376,-0.02269814,0.02973470,-0
 .00821159,-0.00951613,-0.00294835,0.00442968,0.00602270,0.00320651,-0.
 00020986,-0.00391442,-0.00010522,-0.00176339,-0.00151433,-0.00124556,-
 0.01660278,0.37649118,-0.00075324,0.00037026,0.00118580,0.00268782,-0.
 00154956,-0.00238395,-0.00119180,0.00086415,0.00163034,-0.00101136,0.0
 0001155,0.00182886,-0.00286810,0.02350645,-0.02139357,0.03053754,0.070
 67635,-0.11378930,0.03395703,0.03622496,-0.07488001,-0.00960407,-0.015
 21403,0.01122840,0.00145251,0.00593368,-0.00266474,0.00643116,-0.00108
 930,-0.00961640,-0.00091418,-0.00009318,-0.00075986,0.00097105,-0.0004
 0199,0.00197349,-0.00119856,-0.00132971,-0.00111558,0.00028707,0.00024
 469,0.00024461,0.00087397,0.00048604,0.00075031,0.00855313,-0.23457345
 ,0.31357837,0.00203818,-0.00086076,0.00028218,-0.00601897,0.00355861,0
 .00133943,0.00180672,-0.00148885,-0.00137943,0.00296963,-0.00284465,-0
 .00033863,-0.00164116,-0.00572387,0.00621615,0.04239463,0.03186586,-0.
 04219315,-0.01507284,-0.00169088,0.01051480,0.00828274,0.00086781,-0.0
 0477607,-0.00203964,-0.00083577,0.00171203,-0.00464321,0.00195365,0.00
 524497,0.00724153,-0.00293972,0.00981404,-0.00694015,0.00026159,-0.002
 80394,0.00418181,-0.00129224,0.00245032,-0.00125137,0.00078636,-0.0008
 2657,-0.00267567,0.00029992,-0.00157178,-0.20898308,-0.00500827,0.0011
 2164,0.99559570,-0.00236612,0.00065656,-0.00026929,0.00778456,-0.00293
 745,-0.00191558,-0.00256068,0.00127796,0.00201341,-0.00553662,0.002337
 29,0.00074400,0.00072647,-0.00324446,0.00078992,0.03033951,-0.03260211
 ,0.02818802,0.00230629,0.00476259,-0.01409137,-0.00653968,-0.00124535,
 0.01220944,0.00112582,0.00064338,-0.00295392,0.00335053,-0.00222309,-0
 .00553083,0.00141067,-0.00908807,0.00134667,0.00172328,0.00927102,-0.0
 0086708,-0.00280404,-0.00961358,-0.00118926,-0.00038852,0.00471332,-0.
 00046748,0.00084419,0.00254831,0.00041374,-0.01004605,-0.13261357,0.04
 101771,0.29098380,0.92893026,0.00189365,-0.00067608,-0.00021550,-0.006
 47180,0.00277579,0.00256238,0.00213217,-0.00124658,-0.00212244,0.00440
 991,-0.00252709,-0.00048224,-0.00145367,0.00542543,-0.00128593,-0.0266
 1465,0.02492651,-0.03492798,-0.00534437,-0.00282978,0.00900460,0.00668
 321,0.00521255,-0.01224217,-0.00131041,-0.00384492,0.00303173,-0.00275
 764,0.00062539,0.00482753,0.00012299,0.00230105,0.00333083,-0.00177761
 ,-0.00511520,-0.00106176,0.00242736,0.00513640,0.00169799,-0.00007461,
 -0.00242731,-0.00000865,-0.00101696,-0.00134902,-0.00085504,0.01017054
 ,0.03560443,-0.11052947,-0.13917357,-0.39085788,0.59365387,-0.00026163
 ,0.00015365,-0.00003193,0.00070878,-0.00062258,-0.00008068,-0.00020631
 ,0.00025059,0.00013255,-0.00016940,0.00041310,-0.00000790,0.00080327,0
 .00157799,-0.00157260,-0.00931467,-0.00262817,0.00575207,0.00285376,0.
 00000891,-0.00113737,-0.00147224,-0.00002142,0.00026499,0.00040542,0.0
 0005400,-0.00015285,0.00076186,-0.00029087,-0.00072561,-0.00208613,0.0
 0073839,-0.00180976,0.00151980,-0.00056460,0.00058382,-0.00082382,0.00
 086104,-0.00044704,0.00031148,-0.00044829,0.00021039,0.00057233,-0.000
 21889,0.00030770,0.02171752,0.05822815,-0.04380857,-0.20360412,-0.1495
 6997,0.09631753,0.23102331,0.00120720,-0.00034519,-0.00024056,-0.00366
 131,0.00142865,0.00141274,0.00131900,-0.00070154,-0.00121031,0.0024209
 9,-0.00073963,-0.00060267,-0.00342440,-0.00235890,0.00397722,0.0103365
 5,0.00898014,-0.00953559,-0.00083287,-0.00133284,0.00593591,0.00296105
 ,0.00088974,-0.00611890,-0.00056002,-0.00032621,0.00133880,-0.00141255
 ,0.00095053,0.00259848,-0.00142934,0.00330634,0.00032479,-0.00012236,-
 0.00383223,0.00000202,0.00088950,0.00448821,0.00049093,0.00024769,-0.0
 0214121,0.00024676,-0.00024831,-0.00122691,-0.00020879,0.02225929,-0.0
 6950447,0.07169002,-0.12427644,-0.54608957,0.28200418,0.19071353,0.654
 31156,-0.00084580,0.00031104,0.00035575,0.00272737,-0.00119461,-0.0014
 5642,-0.00101090,0.00057615,0.00108945,-0.00174553,0.00061809,0.000501
 48,0.00264431,0.00107631,-0.00279921,-0.00734913,-0.00246009,0.0119884
 5,0.00084618,0.00054283,-0.00277652,-0.00178112,-0.00087641,0.00403987
 ,0.00036278,0.00040928,-0.00096010,0.00087843,-0.00044986,-0.00166057,
 0.00069347,-0.00142522,-0.00063815,0.00034992,0.00294475,0.00004674,-0
 .00090015,-0.00320163,-0.00059708,-0.00011385,0.00152885,-0.00011002,0
 .00031676,0.00086230,0.00027503,-0.01816331,0.07158626,-0.02738927,0.0
 7900488,0.27922266,-0.30863684,-0.11360043,-0.40130786,0.31402128,-0.0
 0083182,0.00038246,-0.00020429,0.00256352,-0.00166296,-0.00043542,-0.0
 0067641,0.00063984,0.00049345,-0.00086955,0.00129611,-0.00018764,0.000
 93818,0.00138425,-0.00194192,-0.01247754,-0.01376886,0.01759001,0.0059
 1536,0.00077787,-0.00469113,-0.00348686,0.00024196,0.00095365,0.000909
 51,-0.00003695,-0.00038511,0.00187616,-0.00086270,-0.00182396,-0.00420
 902,0.00168728,-0.00370927,0.00336517,-0.00072380,0.00103370,-0.002225
 95,0.00153672,-0.00123488,0.00076626,-0.00086140,0.00050638,0.00140557
 ,-0.00040044,0.00079963,-0.09828305,0.01502012,-0.02395251,-0.61366056
 ,-0.16031487,0.06123663,-0.04243622,-0.09815719,0.05887952,0.76132396,
 0.00042269,-0.00008652,-0.00000697,-0.00142284,0.00034525,0.00040791,0
 .00049898,-0.00015434,-0.00039270,0.00110878,-0.00009888,-0.00023039,-
 0.00040462,0.00140438,-0.00011713,-0.00499006,-0.00184288,-0.00135877,
 0.00184305,0.00022713,0.00228601,0.00103239,-0.00145073,-0.00303770,-0
 .00006223,0.00084578,0.00081173,-0.00060596,0.00085258,0.00100792,-0.0
 0137515,-0.00305951,-0.00076351,0.00221581,-0.00485648,0.00145347,0.00
 103984,0.00488821,0.00031056,0.00022197,-0.00222968,0.00030228,-0.0001
 7832,-0.00128638,-0.00006996,0.02466369,0.03443291,0.00065154,-0.17723
 250,-0.21390924,0.04859061,-0.09983565,-0.04574509,0.05109372,0.249781
 29,0.23594382,-0.00036328,0.00013711,0.00012774,0.00131546,-0.00056762
 ,-0.00059677,-0.00047677,0.00028498,0.00049872,-0.00103305,0.00049361,
 0.00024147,0.00057592,-0.00116993,0.00002043,0.00456517,-0.00298131,0.
 00005028,-0.00557777,0.00342972,-0.00812344,-0.00188220,-0.00249942,0.
 00476424,0.00036772,0.00147853,-0.00079714,0.00037003,0.00005741,-0.00
 102611,0.00133158,-0.00010379,-0.00239172,-0.00039402,0.00172701,0.001
 24141,-0.00095781,-0.00144086,-0.00075656,0.00013968,0.00060123,0.0000
 3934,0.00037386,0.00035006,0.00043011,-0.02838846,-0.00081939,0.028275
 62,0.07543335,0.05331057,-0.14722502,0.05962906,0.04941961,0.01494886,
 -0.10302332,-0.10317343,0.11014716,-0.00307738,0.00062950,-0.00157184,
 0.00525238,-0.00284205,0.00446644,-0.00067332,0.00067842,-0.00073273,-
 0.00513868,-0.00758836,0.02023168,-0.06510047,-0.00716427,0.00350309,0
 .00777670,0.02218193,-0.02514870,0.00169162,-0.00209580,0.00217289,-0.
 00123145,0.00519543,-0.00015186,-0.00109002,-0.00250585,0.00120411,0.0
 0033795,-0.00154387,-0.00058653,0.00040021,0.00088571,0.00041343,-0.00
 106045,-0.00092604,-0.00089146,-0.00058358,-0.00125892,-0.00027229,0.0
 0002265,0.00027349,0.00003187,0.00047647,0.00023515,0.00027614,-0.0090
 2446,0.00425483,-0.00382347,0.00340545,-0.00001325,-0.00019883,-0.0008
 2099,0.00154458,-0.00106175,-0.00123617,-0.00026495,0.00010217,0.06714
 017,0.00250370,-0.00080801,-0.00128863,-0.00206446,0.00282034,0.001599
 20,0.00030259,-0.00123778,-0.00089519,0.00386920,0.01603780,-0.0219926
 5,-0.00685764,-0.22729246,0.16568065,-0.00172248,-0.00439747,0.0046579
 1,-0.00007252,0.00017850,-0.00088382,0.00137038,-0.00205293,0.00010536
 ,-0.00195030,0.00107863,0.00042241,-0.00007392,0.00037812,0.00006281,0
 .00044789,-0.00000956,-0.00012328,-0.00194376,-0.00188698,-0.00160188,
 -0.00080668,0.00061227,-0.00064581,0.00026455,-0.00020551,0.00023719,0
 .00009809,-0.00023998,0.00009506,0.00192857,-0.00078675,0.00099956,-0.
 00096788,0.00100953,-0.00024223,0.00011286,-0.00029004,0.00015958,0.00
 055103,-0.00004287,-0.00003037,0.00376047,0.23246038,0.00032997,-0.000
 38564,0.00325703,-0.00535416,0.00289597,-0.00337184,0.00066951,-0.0006
 0684,0.00091007,0.00984123,0.01293460,-0.03483012,0.00580859,0.1529035
 1,-0.21826818,-0.00160772,0.00641136,-0.00545648,-0.00059077,-0.000101
 95,0.00033049,-0.00005034,0.00018781,0.00083880,0.00265245,-0.00005235
 ,-0.00160714,0.00003520,-0.00008729,-0.00014244,-0.00018292,0.00076931
 ,-0.00026019,0.00011807,0.00065491,0.00012760,-0.00040581,-0.00184570,
 -0.00001067,0.00001536,0.00050445,-0.00006928,0.00059845,0.00044114,0.
 00035017,-0.00049471,-0.00029658,0.00056697,0.00023819,0.00031721,0.00
 014268,0.00000096,-0.00015718,0.00007909,0.00012395,-0.00016951,0.0000
 2711,-0.01165788,-0.16652583,0.24430934,-0.00205812,0.00132599,-0.0004
 4547,0.00599824,-0.00007377,0.00090360,-0.00162613,-0.00015503,0.00088
 741,0.00833600,0.02311934,0.01310083,-0.14489279,-0.13084706,-0.047041
 46,-0.02139719,-0.03061570,-0.01218216,0.00278236,0.00019882,-0.000497
 24,-0.00030054,-0.00116079,0.00053258,0.00001644,0.00064693,0.00007335
 ,-0.00009625,0.00021463,0.00002743,-0.00378240,0.00483374,-0.00020092,
 0.00015112,-0.00016078,0.00007470,-0.00009520,0.00129237,-0.00009142,0
 .00016271,-0.00062290,0.00013128,-0.00000462,-0.00055481,-0.00001591,0
 .00206016,-0.00150511,0.00226733,-0.00140601,0.00027096,0.00020069,0.0
 0026982,0.00002244,-0.00007035,0.00096793,0.00040133,-0.00016935,0.002
 39793,0.00109874,-0.00027410,0.15332728,0.00113756,0.00112793,0.002714
 52,-0.00559781,-0.00003980,-0.00458585,0.00102209,-0.00008485,0.000989
 60,0.00254350,-0.00963316,-0.01229040,-0.13012384,-0.26919095,-0.06640
 893,0.00837073,0.00978220,0.00476503,0.00011656,0.00108125,0.00074796,
 -0.00051593,-0.00075972,0.00037310,-0.00038005,0.00042214,0.00004730,0
 .00003368,0.00023964,0.00006474,0.00241070,-0.00210006,0.00051835,-0.0
 0067332,-0.00025706,-0.00031775,0.00032674,0.00015668,0.00012850,-0.00
 010877,0.00011534,-0.00006532,-0.00030857,0.00005845,-0.00017284,0.000
 84574,0.00096909,0.00045888,0.00019367,0.00095595,-0.00050064,-0.00013
 192,-0.00021976,0.00009860,0.00010739,-0.00033376,0.00022947,-0.013393
 91,-0.01521041,-0.00768521,0.13387186,0.28224035,0.00163516,0.00021631
 ,0.00165810,-0.00622274,0.00068716,-0.00160800,0.00155716,0.00017674,-
 0.00012065,-0.00740967,-0.03496817,-0.02248019,-0.03987944,-0.05993561
 ,-0.08434988,-0.00871544,-0.00830005,-0.00352438,0.00164987,0.00079607
 ,0.00004006,0.00016497,0.00095570,0.00069415,0.00040751,-0.00044655,-0
 .00036129,0.00014858,-0.00039265,-0.00042471,-0.00113075,0.00145087,-0
 .00025984,0.00055290,0.00076006,0.00053113,-0.00010615,-0.00069445,-0.
 00012703,0.00000056,0.00016617,0.00004319,0.00032975,0.00017544,0.0002
 0544,0.00006602,-0.00130863,0.00062907,-0.00095764,0.00050199,-0.00018
 967,0.00022389,-0.00018513,0.00012916,0.00064146,0.00006584,-0.0000156
 4,0.01347535,0.02009053,0.01289015,0.04365008,0.08056976,0.09671229,-0
 .00004493,0.00004095,0.00006951,0.00014397,-0.00000567,-0.00012780,-0.
 00004939,0.00002383,0.00006692,0.00025631,-0.00013605,-0.00004355,0.00
 006921,-0.00192490,-0.00043243,-0.01635629,0.00157455,0.00613735,0.002
 16884,0.00130624,0.00086363,0.00108261,-0.00353061,-0.00200190,0.00084
 897,0.00172103,0.00153435,-0.00083326,0.00093419,0.00050054,-0.3504513
 9,0.02069757,0.09842866,-0.00978182,0.01039178,-0.00099770,-0.00334101
 ,-0.00054590,-0.00185101,0.00085227,-0.00034661,0.00073721,0.00215144,
 -0.00310892,0.00002086,-0.00033733,-0.00230093,0.00001980,-0.00294917,
 -0.00023373,0.00030482,0.00071415,0.00043812,-0.00025093,0.00178002,0.
 00331104,-0.00177141,-0.00005465,0.00006571,0.00004446,-0.00047636,0.0
 0018399,-0.00010853,0.37217170,-0.00027144,0.00025365,0.00012305,0.000
 54884,-0.00062638,-0.00044381,-0.00025755,0.00025021,0.00031314,0.0000
 8591,0.00028551,0.00006616,-0.00015131,-0.00433193,-0.00145510,-0.0268
 5686,0.00729964,0.00839913,0.00169607,0.00138893,0.00129431,-0.0007335
 8,0.00023862,-0.00124105,-0.00009728,-0.00015580,0.00010704,0.00016833
 ,-0.00014223,-0.00022997,0.01219798,-0.05857886,-0.00800748,0.04014157
 ,-0.02102654,-0.00665047,0.00835366,0.00566324,0.00248962,-0.00152390,
 -0.00122156,0.00017018,-0.00341985,-0.00226285,-0.00207069,0.00079964,
 -0.00384503,0.00090777,-0.00432078,-0.00028823,-0.00021407,0.00087384,
 0.00025999,-0.00010886,0.00207287,-0.00265107,0.00132273,-0.00017475,0
 .00000630,-0.00009678,-0.00114224,0.00050182,-0.00026331,-0.02778605,0
 .07624297,0.00011038,0.00002995,0.00027147,-0.00020045,0.00008256,-0.0
 0029940,0.00000061,0.00002440,0.00013460,0.00054544,-0.00005509,0.0001
 7253,-0.00070600,-0.00261468,-0.00140312,-0.01840559,0.00044515,0.0042
 2862,0.00111073,0.00183824,0.00132739,-0.00078297,-0.00198529,-0.00187
 701,-0.00047236,0.00062384,-0.00169252,-0.00019116,0.00037708,0.000259
 20,0.10427806,-0.00779042,-0.09755970,-0.01912083,0.00474138,0.0059491
 7,0.00139609,-0.00130117,0.00207598,-0.00020118,0.00047203,-0.00077164
 ,-0.00054350,0.00057909,-0.00051802,-0.00079926,-0.00026961,0.00036343
 ,0.00184944,0.00020152,-0.00012499,-0.00050207,-0.00059802,0.00047450,
 -0.00100915,-0.00003728,-0.00052438,0.00002477,0.00008616,0.00008982,-
 0.00066893,0.00026222,-0.00009660,-0.10068809,0.00639949,0.09721176,0.
 00027564,-0.00003967,0.00036285,-0.00057148,0.00011394,-0.00035952,0.0
 0004846,0.00004695,0.00018541,-0.00038263,0.00025620,0.00021611,0.0000
 4970,-0.00108148,-0.00022968,0.00093503,-0.00090943,-0.02234225,-0.000
 84000,-0.00289643,-0.00296854,-0.00078382,-0.00258182,0.00092454,0.000
 64837,0.00138848,0.00077151,0.00007640,0.00042943,-0.00022123,-0.06629
 163,-0.00102908,0.02350486,0.00049067,0.00794783,-0.02103973,0.0008812
 9,-0.00139637,0.00005583,-0.00039188,0.00037993,0.00029213,-0.00009576
 ,0.00023973,0.00007060,0.00114351,0.00263456,-0.00003419,0.00296955,-0
 .00049256,0.00029461,-0.00046596,-0.00023515,0.00018962,-0.00141848,-0
 .00016859,-0.00016658,0.00019007,0.00008584,0.00014202,-0.00033437,0.0
 0006992,0.00002710,0.00243611,-0.00020312,0.03497601,0.06143123,-0.000
 00473,0.00006806,0.00003196,0.00005734,-0.00014748,0.00008317,-0.00011
 667,0.00007206,0.00007412,-0.00034108,0.00030531,0.00015579,-0.0001775
 4,-0.00181386,0.00012957,0.00245305,0.00294490,-0.02698104,-0.00201837
 ,-0.00444964,-0.00438970,-0.00123975,-0.00078477,0.00294197,0.00007072
 ,0.00054748,-0.00077862,0.00054444,-0.00003708,-0.00067316,-0.00395567
 ,-0.05706338,-0.00388447,0.00462889,-0.02108086,0.04354094,0.00538978,
 0.00607570,0.00647233,-0.00017385,-0.00187033,-0.00137435,-0.00285060,
 -0.00139477,-0.00197718,0.00102160,0.00049588,0.00020762,-0.00128865,-
 0.00325145,-0.00077154,0.00034631,0.00023843,-0.00000587,0.00130998,-0
 .00119261,-0.00005593,0.00013251,-0.00012110,-0.00000941,-0.00045896,0
 .00017869,-0.00011809,-0.00076962,0.00273962,-0.00151155,-0.00255912,0
 .07954118,0.00028975,-0.00008669,0.00028007,-0.00063289,0.00044016,0.0
 0004779,0.00010511,-0.00006215,-0.00002122,0.00060611,-0.00018234,0.00
 015754,0.00001006,-0.00084944,-0.00047563,0.00221287,-0.00024619,-0.01
 191537,-0.00130600,-0.00094600,-0.00067212,-0.00032880,0.00058150,0.00
 094678,-0.00008609,-0.00032394,-0.00046039,0.00025192,-0.00025245,-0.0
 0027857,0.01928271,0.00221056,-0.37512722,-0.00410812,0.01078574,-0.00
 562907,-0.00370924,-0.00071203,-0.00269940,0.00116604,-0.00023642,0.00
 051737,0.00114415,-0.00173205,0.00216529,0.00061185,0.00247208,0.00226
 686,-0.00120064,-0.00213417,0.00165610,0.00045385,0.00072356,-0.000925
 50,0.00034020,0.00237578,0.00064428,0.00019538,0.00003325,0.00009702,-
 0.00019196,0.00005890,0.00002517,-0.00045478,-0.00081105,-0.00769109,-
 0.01465148,-0.01110656,0.39709131||0.00001195,0.00000073,0.00002182,-0
 .00001285,0.00001269,0.00001320,0.00000950,-0.00001259,-0.00002599,-0.
 00001150,0.00000791,-0.00000484,0.00000495,-0.00000511,-0.00000895,-0.
 00001459,0.00001558,0.00001363,0.00003333,0.00001302,-0.00001863,0.000
 01008,-0.00001965,-0.00000006,-0.00000442,-0.00000433,0.00000618,-0.00
 001739,0.00001716,0.00001260,0.00002154,-0.00002188,-0.00002408,-0.000
 00525,-0.00000803,0.00002554,0.00001899,0.00000723,-0.00004348,0.00000
 657,-0.00001232,0.00001880,-0.00002535,0.00000406,-0.00000011,0.000003
 02,0.00000606,0.00002628,0.00000648,-0.00007413,-0.00007003,0.00000892
 ,0.00004348,0.00001719,-0.00002198,0.00001365,0.00003464,-0.00000217,0
 .00000077,0.00000213,0.00000019,0.00000663,0.00000031,-0.00001324,0.00
 001066,0.00000398,-0.00000678,-0.00000159,-0.00000015|||@
 The archive entry for this job was punched.


 IF THERE IS ONE WAY BETTER THAN ANOTHER IT IS THE WAY OF NATURE.

                          -- ARISTOTLE
 Job cpu time:       0 days  0 hours  1 minutes 26.0 seconds.
 Elapsed time:       0 days  0 hours  1 minutes 23.6 seconds.
 File lengths (MBytes):  RWF=    251 Int=      0 D2E=      0 Chk=      8 Scr=      1
 Normal termination of Gaussian 16 at Tue Jun 11 17:18:04 2024.
