 Entering Link 1 = C:\G16W\l1.exe PID=      5628.
  
 Copyright (c) 1988-2019, Gaussian, Inc.  All Rights Reserved.
  
 This is part of the Gaussian(R) 16 program.  It is based on
 the Gaussian(R) 09 system (copyright 2009, Gaussian, Inc.),
 the Gaussian(R) 03 system (copyright 2003, Gaussian, Inc.),
 the Gaussian(R) 98 system (copyright 1998, Gaussian, Inc.),
 the Gaussian(R) 94 system (copyright 1995, Gaussian, Inc.),
 the Gaussian 92(TM) system (copyright 1992, Gaussian, Inc.),
 the Gaussian 90(TM) system (copyright 1990, Gaussian, Inc.),
 the Gaussian 88(TM) system (copyright 1988, Gaussian, Inc.),
 the Gaussian 86(TM) system (copyright 1986, Carnegie Mellon
 University), and the Gaussian 82(TM) system (copyright 1983,
 Carnegie Mellon University). Gaussian is a federally registered
 trademark of Gaussian, Inc.
  
 This software contains proprietary and confidential information,
 including trade secrets, belonging to Gaussian, Inc.
  
 This software is provided under written license and may be
 used, copied, transmitted, or stored only in accord with that
 written license.
  
 The following legend is applicable only to US Government
 contracts under FAR:
  
                    RESTRICTED RIGHTS LEGEND
  
 Use, reproduction and disclosure by the US Government is
 subject to restrictions as set forth in subparagraphs (a)
 and (c) of the Commercial Computer Software - Restricted
 Rights clause in FAR 52.227-19.
  
 Gaussian, Inc.
 340 Quinnipiac St., Bldg. 40, Wallingford CT 06492
  
  
 ---------------------------------------------------------------
 Warning -- This program may not be used in any manner that
 competes with the business of Gaussian, Inc. or will provide
 assistance to any competitor of Gaussian, Inc.  The licensee
 of this program is prohibited from giving any competitor of
 Gaussian, Inc. access to this program.  By using this program,
 the user acknowledges that Gaussian, Inc. is engaged in the
 business of creating and licensing software in the field of
 computational chemistry and represents and warrants to the
 licensee that it is not a competitor of Gaussian, Inc. and that
 it will not use this program in any manner prohibited above.
 ---------------------------------------------------------------
  

 Cite this work as:
 Gaussian 16, Revision C.01,
 M. J. Frisch, G. W. Trucks, H. B. Schlegel, G. E. Scuseria, 
 M. A. Robb, J. R. Cheeseman, G. Scalmani, V. Barone, 
 G. A. Petersson, H. Nakatsuji, X. Li, M. Caricato, A. V. Marenich, 
 J. Bloino, B. G. Janesko, R. Gomperts, B. Mennucci, H. P. Hratchian, 
 J. V. Ortiz, A. F. Izmaylov, J. L. Sonnenberg, D. Williams-Young, 
 F. Ding, F. Lipparini, F. Egidi, J. Goings, B. Peng, A. Petrone, 
 T. Henderson, D. Ranasinghe, V. G. Zakrzewski, J. Gao, N. Rega, 
 G. Zheng, W. Liang, M. Hada, M. Ehara, K. Toyota, R. Fukuda, 
 J. Hasegawa, M. Ishida, T. Nakajima, Y. Honda, O. Kitao, H. Nakai, 
 T. Vreven, K. Throssell, J. A. Montgomery, Jr., J. E. Peralta, 
 F. Ogliaro, M. J. Bearpark, J. J. Heyd, E. N. Brothers, K. N. Kudin, 
 V. N. Staroverov, T. A. Keith, R. Kobayashi, J. Normand, 
 K. Raghavachari, A. P. Rendell, J. C. Burant, S. S. Iyengar, 
 J. Tomasi, M. Cossi, J. M. Millam, M. Klene, C. Adamo, R. Cammi, 
 J. W. Ochterski, R. L. Martin, K. Morokuma, O. Farkas, 
 J. B. Foresman, and D. J. Fox, Gaussian, Inc., Wallingford CT, 2019.
 
 ******************************************
 Gaussian 16:  EM64W-G16RevC.01 30-May-2019
                11-Jun-2024 
 ******************************************
 %nprocshared=24
 Will use up to   24 processors via shared memory.
 %mem=120GB
 ----------------------
 # HF/6-31G(d) Opt Freq
 ----------------------
 1/18=20,19=15,38=1/1,3;
 2/9=110,12=2,17=6,18=5,40=1/2;
 3/5=1,6=6,7=1,11=9,25=1,30=1,71=1/1,2,3;
 4//1;
 5/5=2,38=5/2;
 6/7=2,8=2,9=2,10=2,28=1/1;
 7//1,2,3,16;
 1/18=20,19=15/3(2);
 2/9=110/2;
 99//99;
 2/9=110/2;
 3/5=1,6=6,7=1,11=9,25=1,30=1,71=1/1,2,3;
 4/5=5,16=3,69=1/1;
 5/5=2,38=5/2;
 7//1,2,3,16;
 1/18=20,19=15/3(-5);
 2/9=110/2;
 6/7=2,8=2,9=2,10=2,19=2,28=1/1;
 99/9=1/99;
 ----------------------------------------------------------------------
 O=[N+1]([O-1])OCC(O[N+1]([O-1])=O)(CO[N+1]([O-1])=O)O[N+1]([O-1])=C=O 
 geometry optimization
 ----------------------------------------------------------------------
 Symbolic Z-matrix:
 Charge =  0 Multiplicity = 1
 O                    -3.06579  -1.87531  -0.65053 
 N                    -2.58076  -1.93017   0.47909 
 O                    -2.93632  -2.56785   1.46649 
 O                    -1.41726  -1.15997   0.71867 
 C                    -1.04574  -0.35742  -0.40429 
 C                     0.20387   0.51493  -0.05246 
 O                     0.35361   1.72774  -0.80278 
 N                     0.35383   1.60977  -2.20599 
 O                     0.46943   2.69255  -2.7698 
 O                     0.27224   0.47861  -2.67459 
 C                     1.51979  -0.31701  -0.13271 
 O                     1.41096  -1.49695   0.66452 
 N                     2.61663  -2.23863   0.70833 
 O                     3.56995  -1.79135   0.07095 
 O                     2.5255   -3.25102   1.39642 
 O                     0.14758   0.87171   1.36331 
 N                    -0.81762   1.90547   1.64039 
 O                    -1.8198    2.0731    0.87632 
 C                    -0.65525   2.74078   2.8494 
 O                    -0.50297   3.39981   3.81463 
 H                    -1.88008   0.28445  -0.70969 
 H                    -0.81222  -1.02352  -1.24313 
 H                     1.75041  -0.60092  -1.16411 
 H                     2.34001   0.31118   0.24226 
 

 GradGradGradGradGradGradGradGradGradGradGradGradGradGradGradGradGradGrad
 Berny optimization.
 Initialization pass.
                           ----------------------------
                           !    Initial Parameters    !
                           ! (Angstroms and Degrees)  !
 --------------------------                            --------------------------
 ! Name  Definition              Value          Derivative Info.                !
 --------------------------------------------------------------------------------
 ! R1    R(1,2)                  1.2306         estimate D2E/DX2                !
 ! R2    R(2,3)                  1.228          estimate D2E/DX2                !
 ! R3    R(2,4)                  1.4158         estimate D2E/DX2                !
 ! R4    R(4,5)                  1.4294         estimate D2E/DX2                !
 ! R5    R(5,6)                  1.5641         estimate D2E/DX2                !
 ! R6    R(5,21)                 1.0961         estimate D2E/DX2                !
 ! R7    R(5,22)                 1.0963         estimate D2E/DX2                !
 ! R8    R(6,7)                  1.434          estimate D2E/DX2                !
 ! R9    R(6,11)                 1.5589         estimate D2E/DX2                !
 ! R10   R(6,16)                 1.4611         estimate D2E/DX2                !
 ! R11   R(7,8)                  1.4082         estimate D2E/DX2                !
 ! R12   R(8,9)                  1.2262         estimate D2E/DX2                !
 ! R13   R(8,10)                 1.2271         estimate D2E/DX2                !
 ! R14   R(11,12)                1.4282         estimate D2E/DX2                !
 ! R15   R(11,23)                1.0943         estimate D2E/DX2                !
 ! R16   R(11,24)                1.0991         estimate D2E/DX2                !
 ! R17   R(12,13)                1.4162         estimate D2E/DX2                !
 ! R18   R(13,14)                1.2309         estimate D2E/DX2                !
 ! R19   R(13,15)                1.2275         estimate D2E/DX2                !
 ! R20   R(16,17)                1.4412         estimate D2E/DX2                !
 ! R21   R(17,18)                1.2713         estimate D2E/DX2                !
 ! R22   R(17,19)                1.4785         estimate D2E/DX2                !
 ! R23   R(19,20)                1.1786         estimate D2E/DX2                !
 ! A1    A(1,2,3)              130.3256         estimate D2E/DX2                !
 ! A2    A(1,2,4)              117.0656         estimate D2E/DX2                !
 ! A3    A(3,2,4)              112.6055         estimate D2E/DX2                !
 ! A4    A(2,4,5)              112.7124         estimate D2E/DX2                !
 ! A5    A(4,5,6)              110.1261         estimate D2E/DX2                !
 ! A6    A(4,5,21)             110.4779         estimate D2E/DX2                !
 ! A7    A(4,5,22)             108.3822         estimate D2E/DX2                !
 ! A8    A(6,5,21)             110.1338         estimate D2E/DX2                !
 ! A9    A(6,5,22)             109.9268         estimate D2E/DX2                !
 ! A10   A(21,5,22)            107.7434         estimate D2E/DX2                !
 ! A11   A(5,6,7)              115.9411         estimate D2E/DX2                !
 ! A12   A(5,6,11)             111.4187         estimate D2E/DX2                !
 ! A13   A(5,6,16)             108.867          estimate D2E/DX2                !
 ! A14   A(7,6,11)             109.6504         estimate D2E/DX2                !
 ! A15   A(7,6,16)             107.7285         estimate D2E/DX2                !
 ! A16   A(11,6,16)            102.2813         estimate D2E/DX2                !
 ! A17   A(6,7,8)              116.78           estimate D2E/DX2                !
 ! A18   A(7,8,9)              112.595          estimate D2E/DX2                !
 ! A19   A(7,8,10)             117.2416         estimate D2E/DX2                !
 ! A20   A(9,8,10)             130.1405         estimate D2E/DX2                !
 ! A21   A(6,11,12)            110.3557         estimate D2E/DX2                !
 ! A22   A(6,11,23)            111.3989         estimate D2E/DX2                !
 ! A23   A(6,11,24)            107.9009         estimate D2E/DX2                !
 ! A24   A(12,11,23)           109.1369         estimate D2E/DX2                !
 ! A25   A(12,11,24)           109.7938         estimate D2E/DX2                !
 ! A26   A(23,11,24)           108.2136         estimate D2E/DX2                !
 ! A27   A(11,12,13)           112.6481         estimate D2E/DX2                !
 ! A28   A(12,13,14)           116.9383         estimate D2E/DX2                !
 ! A29   A(12,13,15)           112.7105         estimate D2E/DX2                !
 ! A30   A(14,13,15)           130.351          estimate D2E/DX2                !
 ! A31   A(6,16,17)            112.7827         estimate D2E/DX2                !
 ! A32   A(16,17,18)           120.4624         estimate D2E/DX2                !
 ! A33   A(16,17,19)           119.2702         estimate D2E/DX2                !
 ! A34   A(18,17,19)           120.2352         estimate D2E/DX2                !
 ! A35   L(17,19,20,15,-1)     179.018          estimate D2E/DX2                !
 ! A36   L(17,19,20,15,-2)     179.2224         estimate D2E/DX2                !
 ! D1    D(1,2,3,4)            179.3112         estimate D2E/DX2                !
 ! D2    D(1,2,4,5)              3.9872         estimate D2E/DX2                !
 ! D3    D(3,2,4,5)           -176.6025         estimate D2E/DX2                !
 ! D4    D(2,4,5,6)            177.4027         estimate D2E/DX2                !
 ! D5    D(2,4,5,21)            55.52           estimate D2E/DX2                !
 ! D6    D(2,4,5,22)           -62.3135         estimate D2E/DX2                !
 ! D7    D(4,5,6,7)           -154.5739         estimate D2E/DX2                !
 ! D8    D(4,5,6,11)            79.0896         estimate D2E/DX2                !
 ! D9    D(4,5,6,16)           -32.9668         estimate D2E/DX2                !
 ! D10   D(21,5,6,7)           -32.4872         estimate D2E/DX2                !
 ! D11   D(21,5,6,11)         -158.8238         estimate D2E/DX2                !
 ! D12   D(21,5,6,16)           89.1198         estimate D2E/DX2                !
 ! D13   D(22,5,6,7)            86.0786         estimate D2E/DX2                !
 ! D14   D(22,5,6,11)          -40.2579         estimate D2E/DX2                !
 ! D15   D(22,5,6,16)         -152.3143         estimate D2E/DX2                !
 ! D16   D(5,6,7,8)            -54.354          estimate D2E/DX2                !
 ! D17   D(11,6,7,8)            72.8686         estimate D2E/DX2                !
 ! D18   D(16,6,7,8)          -176.5658         estimate D2E/DX2                !
 ! D19   D(5,6,11,12)          -53.1737         estimate D2E/DX2                !
 ! D20   D(5,6,11,23)           68.2218         estimate D2E/DX2                !
 ! D21   D(5,6,11,24)         -173.1346         estimate D2E/DX2                !
 ! D22   D(7,6,11,12)          177.1068         estimate D2E/DX2                !
 ! D23   D(7,6,11,23)          -61.4976         estimate D2E/DX2                !
 ! D24   D(7,6,11,24)           57.146          estimate D2E/DX2                !
 ! D25   D(16,6,11,12)          62.9872         estimate D2E/DX2                !
 ! D26   D(16,6,11,23)        -175.6173         estimate D2E/DX2                !
 ! D27   D(16,6,11,24)         -56.9737         estimate D2E/DX2                !
 ! D28   D(5,6,16,17)          -75.5993         estimate D2E/DX2                !
 ! D29   D(7,6,16,17)           50.8834         estimate D2E/DX2                !
 ! D30   D(11,6,16,17)         166.4088         estimate D2E/DX2                !
 ! D31   D(6,7,8,9)            179.1445         estimate D2E/DX2                !
 ! D32   D(6,7,8,10)            -2.4185         estimate D2E/DX2                !
 ! D33   D(7,8,9,10)           178.1821         estimate D2E/DX2                !
 ! D34   D(6,11,12,13)        -175.4969         estimate D2E/DX2                !
 ! D35   D(23,11,12,13)         61.7739         estimate D2E/DX2                !
 ! D36   D(24,11,12,13)        -56.6834         estimate D2E/DX2                !
 ! D37   D(11,12,13,14)         -0.3284         estimate D2E/DX2                !
 ! D38   D(11,12,13,15)        179.8011         estimate D2E/DX2                !
 ! D39   D(12,13,14,15)       -179.8433         estimate D2E/DX2                !
 ! D40   D(6,16,17,18)          25.6994         estimate D2E/DX2                !
 ! D41   D(6,16,17,19)        -156.3599         estimate D2E/DX2                !
 ! D42   D(16,17,18,19)        177.9208         estimate D2E/DX2                !
 --------------------------------------------------------------------------------
 Trust Radius=3.00D-01 FncErr=1.00D-07 GrdErr=1.00D-07 EigMax=2.50D+02 EigMin=1.00D-04
 Number of steps in this run=    111 maximum allowed number of steps=    144.
 GradGradGradGradGradGradGradGradGradGradGradGradGradGradGradGradGradGrad

                          Input orientation:                          
 ---------------------------------------------------------------------
 Center     Atomic      Atomic             Coordinates (Angstroms)
 Number     Number       Type             X           Y           Z
 ---------------------------------------------------------------------
      1          8           0       -3.065790   -1.875313   -0.650526
      2          7           0       -2.580764   -1.930173    0.479095
      3          8           0       -2.936321   -2.567847    1.466490
      4          8           0       -1.417258   -1.159968    0.718675
      5          6           0       -1.045738   -0.357424   -0.404293
      6          6           0        0.203875    0.514935   -0.052463
      7          8           0        0.353606    1.727739   -0.802775
      8          7           0        0.353832    1.609774   -2.205994
      9          8           0        0.469429    2.692554   -2.769801
     10          8           0        0.272242    0.478612   -2.674591
     11          6           0        1.519793   -0.317006   -0.132712
     12          8           0        1.410958   -1.496950    0.664520
     13          7           0        2.616629   -2.238628    0.708327
     14          8           0        3.569947   -1.791353    0.070947
     15          8           0        2.525502   -3.251019    1.396422
     16          8           0        0.147582    0.871708    1.363310
     17          7           0       -0.817621    1.905473    1.640386
     18          8           0       -1.819803    2.073100    0.876318
     19          6           0       -0.655253    2.740785    2.849401
     20          8           0       -0.502970    3.399811    3.814627
     21          1           0       -1.880078    0.284452   -0.709694
     22          1           0       -0.812222   -1.023520   -1.243128
     23          1           0        1.750410   -0.600917   -1.164106
     24          1           0        2.340012    0.311176    0.242259
 ---------------------------------------------------------------------
                    Distance matrix (angstroms):
                    1          2          3          4          5
     1  O    0.000000
     2  N    1.230571   0.000000
     3  O    2.231171   1.228006   0.000000
     4  O    2.259223   1.415754   2.202022   0.000000
     5  C    2.538746   2.368590   3.458338   1.429392   0.000000
     6  C    4.094102   3.743704   4.655276   2.455204   1.564074
     7  O    4.969651   4.861485   5.867303   3.713438   2.542608
     8  N    5.124366   5.324733   6.462566   4.400218   3.012439
     9  O    6.152602   6.420951   7.564200   5.529103   4.146532
    10  O    4.558537   4.887496   6.060061   4.129601   2.755046
    11  C    4.870732   4.448728   5.242202   3.172021   2.580182
    12  O    4.681215   4.019441   4.548495   2.848736   2.911397
    13  N    5.853919   5.211582   5.614130   4.175627   4.264948
    14  O    6.675371   6.165801   6.699403   5.068571   4.856598
    15  O    6.111065   5.353510   5.504829   4.514110   4.936519
    16  O    4.682673   4.009519   4.620784   2.644237   2.461544
    17  N    4.959525   4.378293   4.952749   3.256693   3.058342
    18  O    4.412903   4.094270   4.809710   3.261844   2.854224
    19  C    6.274436   5.580662   5.941152   4.509603   4.509757
    20  O    7.371064   6.622064   6.859147   5.586809   5.675448
    21  H    2.464548   2.609357   3.739925   2.083456   1.096083
    22  H    2.480988   2.629793   3.773430   2.057513   1.096292
    23  H    5.008356   4.819346   5.723137   3.727133   2.907756
    24  H    5.899194   5.412372   6.134101   4.063042   3.511176
                    6          7          8          9         10
     6  C    0.000000
     7  O    1.433974   0.000000
     8  N    2.420508   1.408169   0.000000
     9  O    3.492345   2.193963   1.226236   0.000000
    10  O    2.623271   2.251807   1.227097   2.224745   0.000000
    11  C    1.558912   2.447439   3.061118   4.137023   2.941181
    12  O    2.453322   3.697237   4.359942   5.498452   4.043411
    13  N    3.739291   4.810070   5.331390   6.405030   4.931904
    14  O    4.082234   4.846880   5.205336   6.147234   4.854439
    15  O    4.655279   5.860173   6.428130   7.543932   5.963260
    16  O    1.461119   2.338196   3.650646   4.527878   4.058905
    17  N    2.417186   2.715216   4.031672   4.661088   4.673624
    18  O    2.717680   2.768092   3.800001   4.349539   4.419050
    19  C    3.756770   3.922047   5.277732   5.730852   6.040874
    20  O    4.876118   4.984972   6.339260   6.693315   7.158513
    21  H    2.197256   2.661030   2.997623   3.945020   2.920787
    22  H    2.194762   3.020345   3.036614   4.216938   2.341270
    23  H    2.207407   2.739390   2.814803   3.881511   2.373169
    24  H    2.165978   2.654158   3.409576   4.271130   3.579347
                   11         12         13         14         15
    11  C    0.000000
    12  O    1.428177   0.000000
    13  N    2.367072   1.416210   0.000000
    14  O    2.533438   2.258370   1.230903   0.000000
    15  O    3.458053   2.203327   1.227483   2.231227   0.000000
    16  O    2.352464   2.773980   4.024847   4.524895   4.759462
    17  N    3.680597   4.182746   5.462270   5.948144   6.150236
    18  O    4.228907   4.819536   6.188793   6.680720   6.891910
    19  C    4.793110   5.196280   6.331190   6.790610   6.937583
    20  O    5.786863   6.128994   7.153531   7.586302   7.697590
    21  H    3.500540   3.986573   5.347625   5.883972   6.028632
    22  H    2.677775   2.967454   4.128158   4.638940   4.803059
    23  H    1.094332   2.064455   2.634091   2.500641   3.765649
    24  H    1.099078   2.076238   2.606768   2.441867   3.749097
                   16         17         18         19         20
    16  O    0.000000
    17  N    1.441200   0.000000
    18  O    2.356079   1.271324   0.000000
    19  C    2.519217   1.478454   2.386427   0.000000
    20  O    3.580988   2.656949   3.482509   1.178629   0.000000
    21  H    2.958652   3.046211   2.391304   4.494544   5.663159
    22  H    3.362534   4.110193   3.885400   5.562681   6.726246
    23  H    3.335493   4.554333   4.905112   5.749993   6.772837
    24  H    2.525411   3.803576   4.561849   4.655298   5.512171
                   21         22         23         24
    21  H    0.000000
    22  H    1.770779   0.000000
    23  H    3.764414   2.598446   0.000000
    24  H    4.326209   3.731536   1.776909   0.000000
 Stoichiometry    C4H4N4O12
 Framework group  C1[X(C4H4N4O12)]
 Deg. of freedom    66
 Full point group                 C1      NOp   1
 Largest Abelian subgroup         C1      NOp   1
 Largest concise Abelian subgroup C1      NOp   1
                         Standard orientation:                         
 ---------------------------------------------------------------------
 Center     Atomic      Atomic             Coordinates (Angstroms)
 Number     Number       Type             X           Y           Z
 ---------------------------------------------------------------------
      1          8           0       -0.317049    2.746222   -2.415363
      2          7           0       -0.461149    2.917625   -1.205338
      3          8           0       -0.725806    3.936504   -0.573008
      4          8           0       -0.320857    1.781339   -0.372553
      5          6           0        0.063095    0.610333   -1.096767
      6          6           0        0.264412   -0.588931   -0.113118
      7          8           0        1.156250   -1.620727   -0.556177
      8          7           0        0.884418   -2.198536   -1.811240
      9          8           0        1.702105   -3.058172   -2.121192
     10          8           0       -0.116112   -1.807871   -2.404611
     11          6           0       -1.099478   -1.218310    0.303886
     12          8           0       -1.976712   -0.211825    0.810973
     13          7           0       -3.194317   -0.745292    1.299341
     14          8           0       -3.339634   -1.965116    1.221649
     15          8           0       -3.947573    0.118414    1.739036
     16          8           0        0.772210   -0.077433    1.157858
     17          7           0        2.167044    0.280250    1.098204
     18          8           0        2.701266    0.609551   -0.007433
     19          6           0        2.960967    0.304802    2.345165
     20          8           0        3.577112    0.311096    3.349900
     21          1           0        0.984319    0.793686   -1.661678
     22          1           0       -0.728987    0.373995   -1.816911
     23          1           0       -1.581209   -1.722247   -0.539647
     24          1           0       -0.901660   -1.966979    1.083845
 ---------------------------------------------------------------------
 Rotational constants (GHZ):           0.2948101           0.2528558           0.2283552
 Standard basis: 6-31G(d) (6D, 7F)
 There are   308 symmetry adapted cartesian basis functions of A   symmetry.
 There are   308 symmetry adapted basis functions of A   symmetry.
   308 basis functions,   576 primitive gaussians,   308 cartesian basis functions
    76 alpha electrons       76 beta electrons
       nuclear repulsion energy      1725.5870496994 Hartrees.
 NAtoms=   24 NActive=   24 NUniq=   24 SFac= 1.00D+00 NAtFMM=   60 NAOKFM=F Big=F
 Integral buffers will be    131072 words long.
 Raffenetti 1 integral format.
 Two-electron integral symmetry is turned on.
 One-electron integrals computed using PRISM.
 NBasis=   308 RedAO= T EigKep=  1.94D-03  NBF=   308
 NBsUse=   308 1.00D-06 EigRej= -1.00D+00 NBFU=   308
 ExpMin= 1.61D-01 ExpMax= 5.48D+03 ExpMxC= 8.25D+02 IAcc=3 IRadAn=         5 AccDes= 0.00D+00
 Harris functional with IExCor=  205 and IRadAn=       5 diagonalized for initial guess.
 HarFok:  IExCor=  205 AccDes= 0.00D+00 IRadAn=         5 IDoV= 1 UseB2=F ITyADJ=14
 ICtDFT=  3500011 ScaDFX=  1.000000  1.000000  1.000000  1.000000
 FoFCou: FMM=F IPFlag=           0 FMFlag=      100000 FMFlg1=           0
         NFxFlg=           0 DoJE=T BraDBF=F KetDBF=T FulRan=T
         wScrn=  0.000000 ICntrl=       500 IOpCl=  0 I1Cent=   200000004 NGrid=           0
         NMat0=    1 NMatS0=      1 NMatT0=    0 NMatD0=    1 NMtDS0=    0 NMtDT0=    0
 Petite list used in FoFCou.
 Requested convergence on RMS density matrix=1.00D-08 within 128 cycles.
 Requested convergence on MAX density matrix=1.00D-06.
 Requested convergence on             energy=1.00D-06.
 No special actions if energy rises.
 Integral accuracy reduced to 1.0D-05 until final iterations.
 Initial convergence to 1.0D-05 achieved.  Increase integral accuracy.
 SCF Done:  E(RHF) =  -1269.06094917     A.U. after   20 cycles
            NFock= 20  Conv=0.63D-08     -V/T= 2.0047

 **********************************************************************

            Population analysis using the SCF Density.

 **********************************************************************

 Orbital symmetries:
       Occupied  (A) (A) (A) (A) (A) (A) (A) (A) (A) (A) (A) (A)
                 (A) (A) (A) (A) (A) (A) (A) (A) (A) (A) (A) (A)
                 (A) (A) (A) (A) (A) (A) (A) (A) (A) (A) (A) (A)
                 (A) (A) (A) (A) (A) (A) (A) (A) (A) (A) (A) (A)
                 (A) (A) (A) (A) (A) (A) (A) (A) (A) (A) (A) (A)
                 (A) (A) (A) (A) (A) (A) (A) (A) (A) (A) (A) (A)
                 (A) (A) (A) (A)
       Virtual   (A) (A) (A) (A) (A) (A) (A) (A) (A) (A) (A) (A)
                 (A) (A) (A) (A) (A) (A) (A) (A) (A) (A) (A) (A)
                 (A) (A) (A) (A) (A) (A) (A) (A) (A) (A) (A) (A)
                 (A) (A) (A) (A) (A) (A) (A) (A) (A) (A) (A) (A)
                 (A) (A) (A) (A) (A) (A) (A) (A) (A) (A) (A) (A)
                 (A) (A) (A) (A) (A) (A) (A) (A) (A) (A) (A) (A)
                 (A) (A) (A) (A) (A) (A) (A) (A) (A) (A) (A) (A)
                 (A) (A) (A) (A) (A) (A) (A) (A) (A) (A) (A) (A)
                 (A) (A) (A) (A) (A) (A) (A) (A) (A) (A) (A) (A)
                 (A) (A) (A) (A) (A) (A) (A) (A) (A) (A) (A) (A)
                 (A) (A) (A) (A) (A) (A) (A) (A) (A) (A) (A) (A)
                 (A) (A) (A) (A) (A) (A) (A) (A) (A) (A) (A) (A)
                 (A) (A) (A) (A) (A) (A) (A) (A) (A) (A) (A) (A)
                 (A) (A) (A) (A) (A) (A) (A) (A) (A) (A) (A) (A)
                 (A) (A) (A) (A) (A) (A) (A) (A) (A) (A) (A) (A)
                 (A) (A) (A) (A) (A) (A) (A) (A) (A) (A) (A) (A)
                 (A) (A) (A) (A) (A) (A) (A) (A) (A) (A) (A) (A)
                 (A) (A) (A) (A) (A) (A) (A) (A) (A) (A) (A) (A)
                 (A) (A) (A) (A) (A) (A) (A) (A) (A) (A) (A) (A)
                 (A) (A) (A) (A)
 The electronic state is 1-A.
 Alpha  occ. eigenvalues --  -20.75778 -20.74224 -20.72087 -20.71523 -20.69856
 Alpha  occ. eigenvalues --  -20.69186 -20.69082 -20.67075 -20.66822 -20.65655
 Alpha  occ. eigenvalues --  -20.65333 -20.56194 -15.98863 -15.96298 -15.94886
 Alpha  occ. eigenvalues --  -15.83425 -11.54516 -11.47195 -11.36915 -11.35098
 Alpha  occ. eigenvalues --   -1.70701  -1.67905  -1.66405  -1.56948  -1.55268
 Alpha  occ. eigenvalues --   -1.48868  -1.48457  -1.46568  -1.45917  -1.44801
 Alpha  occ. eigenvalues --   -1.44429  -1.40244  -1.15820  -1.09008  -1.04673
 Alpha  occ. eigenvalues --   -1.01915  -0.93800  -0.91517  -0.89432  -0.86543
 Alpha  occ. eigenvalues --   -0.83453  -0.83057  -0.82345  -0.81448  -0.81243
 Alpha  occ. eigenvalues --   -0.80347  -0.79086  -0.78784  -0.78085  -0.76234
 Alpha  occ. eigenvalues --   -0.75037  -0.73643  -0.71497  -0.69837  -0.69042
 Alpha  occ. eigenvalues --   -0.68820  -0.66052  -0.65668  -0.63861  -0.62997
 Alpha  occ. eigenvalues --   -0.62130  -0.58696  -0.57556  -0.56778  -0.55888
 Alpha  occ. eigenvalues --   -0.55061  -0.54561  -0.53969  -0.53308  -0.52846
 Alpha  occ. eigenvalues --   -0.52323  -0.51776  -0.50024  -0.48727  -0.46570
 Alpha  occ. eigenvalues --   -0.35970
 Alpha virt. eigenvalues --    0.02948   0.04150   0.06449   0.07905   0.08530
 Alpha virt. eigenvalues --    0.10548   0.16531   0.18333   0.22044   0.24009
 Alpha virt. eigenvalues --    0.25134   0.25964   0.27370   0.28269   0.31478
 Alpha virt. eigenvalues --    0.32396   0.36142   0.38059   0.38505   0.40715
 Alpha virt. eigenvalues --    0.44377   0.44866   0.46166   0.48556   0.52859
 Alpha virt. eigenvalues --    0.56016   0.56939   0.58003   0.64096   0.64765
 Alpha virt. eigenvalues --    0.65449   0.68708   0.70602   0.72737   0.73144
 Alpha virt. eigenvalues --    0.74285   0.76982   0.78085   0.80081   0.80573
 Alpha virt. eigenvalues --    0.81192   0.83010   0.85237   0.86010   0.86957
 Alpha virt. eigenvalues --    0.87523   0.88426   0.89261   0.89696   0.91861
 Alpha virt. eigenvalues --    0.94251   0.96273   0.97414   1.00180   1.00979
 Alpha virt. eigenvalues --    1.01830   1.02624   1.04190   1.04842   1.05777
 Alpha virt. eigenvalues --    1.05923   1.07467   1.08858   1.09433   1.10783
 Alpha virt. eigenvalues --    1.12172   1.13528   1.14433   1.15602   1.16045
 Alpha virt. eigenvalues --    1.17190   1.17440   1.18685   1.18851   1.19612
 Alpha virt. eigenvalues --    1.20724   1.21267   1.21837   1.22438   1.23008
 Alpha virt. eigenvalues --    1.23920   1.24552   1.24985   1.26272   1.28459
 Alpha virt. eigenvalues --    1.30310   1.31105   1.33031   1.34231   1.36210
 Alpha virt. eigenvalues --    1.37159   1.38929   1.40656   1.42220   1.43672
 Alpha virt. eigenvalues --    1.44917   1.48064   1.50000   1.53557   1.54646
 Alpha virt. eigenvalues --    1.55704   1.58488   1.58614   1.60505   1.60766
 Alpha virt. eigenvalues --    1.63273   1.63768   1.64303   1.67295   1.67740
 Alpha virt. eigenvalues --    1.69056   1.69627   1.71417   1.71972   1.73538
 Alpha virt. eigenvalues --    1.74392   1.77239   1.80899   1.84937   1.86447
 Alpha virt. eigenvalues --    1.88967   1.91935   1.93933   1.94520   1.96245
 Alpha virt. eigenvalues --    1.97284   1.98307   1.99915   2.01382   2.01822
 Alpha virt. eigenvalues --    2.03087   2.03529   2.04128   2.04726   2.04868
 Alpha virt. eigenvalues --    2.05281   2.05865   2.06326   2.07241   2.10689
 Alpha virt. eigenvalues --    2.11520   2.13005   2.14041   2.14408   2.15438
 Alpha virt. eigenvalues --    2.16932   2.17849   2.19303   2.19898   2.22623
 Alpha virt. eigenvalues --    2.23647   2.25298   2.27614   2.28074   2.29221
 Alpha virt. eigenvalues --    2.30381   2.30641   2.32613   2.34375   2.36259
 Alpha virt. eigenvalues --    2.36329   2.38026   2.39660   2.41334   2.43624
 Alpha virt. eigenvalues --    2.45222   2.47532   2.49590   2.50430   2.53585
 Alpha virt. eigenvalues --    2.54810   2.55302   2.58613   2.60262   2.62924
 Alpha virt. eigenvalues --    2.69849   2.73199   2.76074   2.78298   2.80304
 Alpha virt. eigenvalues --    2.81849   2.84904   2.89617   2.95952   2.98557
 Alpha virt. eigenvalues --    2.99219   2.99692   3.00662   3.01242   3.02882
 Alpha virt. eigenvalues --    3.04510   3.07826   3.08661   3.11293   3.14005
 Alpha virt. eigenvalues --    3.14996   3.16144   3.16794   3.17348   3.17741
 Alpha virt. eigenvalues --    3.18171   3.19681   3.23432   3.27635   3.32760
 Alpha virt. eigenvalues --    3.35209   3.35447   3.37417   3.41134   3.41515
 Alpha virt. eigenvalues --    3.45474   3.50408   3.96250   3.98204   3.99712
 Alpha virt. eigenvalues --    4.09988   4.16855   4.17410   4.18621   4.20021
 Alpha virt. eigenvalues --    4.20237   4.22024   4.24706   4.38475   4.46693
 Alpha virt. eigenvalues --    4.52809   4.54423   4.57949   4.78267   4.81188
 Alpha virt. eigenvalues --    4.96093   5.05355
          Condensed to atoms (all electrons):
               1          2          3          4          5          6
     1  O    8.266830   0.322697  -0.074265  -0.086638  -0.001821   0.000591
     2  N    0.322697   5.219483   0.377553   0.210466  -0.037969   0.002171
     3  O   -0.074265   0.377553   8.179384  -0.084716   0.003222  -0.000047
     4  O   -0.086638   0.210466  -0.084716   8.409111   0.121177  -0.023608
     5  C   -0.001821  -0.037969   0.003222   0.121177   5.001756   0.318650
     6  C    0.000591   0.002171  -0.000047  -0.023608   0.318650   4.606503
     7  O    0.000000  -0.000005   0.000000   0.000407  -0.030395   0.121527
     8  N    0.000001  -0.000001   0.000000   0.000007  -0.002375  -0.014086
     9  O    0.000000   0.000000   0.000000   0.000000  -0.000171   0.002495
    10  O    0.000002   0.000003   0.000000   0.000133  -0.006395   0.008468
    11  C   -0.000016  -0.000199   0.000002   0.003795  -0.071540   0.359108
    12  O    0.000000   0.000059  -0.000003  -0.001321   0.003199  -0.030668
    13  N    0.000000  -0.000001   0.000000   0.000039  -0.000366   0.002500
    14  O    0.000000   0.000000   0.000000   0.000000  -0.000006   0.000658
    15  O    0.000000   0.000000   0.000000  -0.000001  -0.000003  -0.000057
    16  O   -0.000008  -0.000081  -0.000002  -0.003797  -0.044404   0.149861
    17  N    0.000003  -0.000048   0.000000   0.001877  -0.006760  -0.035135
    18  O   -0.000012   0.000068  -0.000001  -0.000491  -0.005170   0.016328
    19  C    0.000000   0.000000   0.000000   0.000048  -0.000078   0.001150
    20  O    0.000000   0.000000   0.000000   0.000000   0.000000  -0.000005
    21  H    0.002826  -0.003664   0.000016  -0.024046   0.385246  -0.025401
    22  H    0.002466  -0.002441  -0.000031  -0.035616   0.391849  -0.038176
    23  H    0.000000   0.000000   0.000000   0.000102  -0.003070  -0.029438
    24  H    0.000000   0.000002   0.000000  -0.000100   0.004859  -0.030903
               7          8          9         10         11         12
     1  O    0.000000   0.000001   0.000000   0.000002  -0.000016   0.000000
     2  N   -0.000005  -0.000001   0.000000   0.000003  -0.000199   0.000059
     3  O    0.000000   0.000000   0.000000   0.000000   0.000002  -0.000003
     4  O    0.000407   0.000007   0.000000   0.000133   0.003795  -0.001321
     5  C   -0.030395  -0.002375  -0.000171  -0.006395  -0.071540   0.003199
     6  C    0.121527  -0.014086   0.002495   0.008468   0.359108  -0.030668
     7  O    8.465381   0.189391  -0.083473  -0.090155  -0.030991   0.000643
     8  N    0.189391   5.228922   0.377931   0.307375  -0.002635  -0.000009
     9  O   -0.083473   0.377931   8.148698  -0.075015  -0.000126   0.000000
    10  O   -0.090155   0.307375  -0.075015   8.295806  -0.007143   0.000074
    11  C   -0.030991  -0.002635  -0.000126  -0.007143   4.961891   0.127341
    12  O    0.000643  -0.000009   0.000000   0.000074   0.127341   8.405453
    13  N   -0.000005  -0.000001   0.000000   0.000003  -0.037623   0.206614
    14  O    0.000001   0.000000   0.000000   0.000000  -0.000212  -0.087820
    15  O    0.000000   0.000000   0.000000   0.000000   0.003272  -0.084861
    16  O   -0.021189   0.000847  -0.000025  -0.000022  -0.057779   0.003647
    17  N   -0.001302  -0.000191   0.000003   0.000002   0.003569  -0.000027
    18  O   -0.005832   0.000182  -0.000012  -0.000004   0.000215  -0.000001
    19  C    0.000090  -0.000004   0.000000   0.000000  -0.000061   0.000001
    20  O    0.000000   0.000000   0.000000   0.000000   0.000000   0.000000
    21  H   -0.000988   0.000730  -0.000044  -0.000057   0.002997   0.000041
    22  H    0.002174  -0.001221   0.000001  -0.000270  -0.003485   0.000494
    23  H    0.000187  -0.001004  -0.000048   0.003977   0.390978  -0.028581
    24  H    0.000586   0.000184  -0.000015   0.000276   0.383581  -0.027891
              13         14         15         16         17         18
     1  O    0.000000   0.000000   0.000000  -0.000008   0.000003  -0.000012
     2  N   -0.000001   0.000000   0.000000  -0.000081  -0.000048   0.000068
     3  O    0.000000   0.000000   0.000000  -0.000002   0.000000  -0.000001
     4  O    0.000039   0.000000  -0.000001  -0.003797   0.001877  -0.000491
     5  C   -0.000366  -0.000006  -0.000003  -0.044404  -0.006760  -0.005170
     6  C    0.002500   0.000658  -0.000057   0.149861  -0.035135   0.016328
     7  O   -0.000005   0.000001   0.000000  -0.021189  -0.001302  -0.005832
     8  N   -0.000001   0.000000   0.000000   0.000847  -0.000191   0.000182
     9  O    0.000000   0.000000   0.000000  -0.000025   0.000003  -0.000012
    10  O    0.000003   0.000000   0.000000  -0.000022   0.000002  -0.000004
    11  C   -0.037623  -0.000212   0.003272  -0.057779   0.003569   0.000215
    12  O    0.206614  -0.087820  -0.084861   0.003647  -0.000027  -0.000001
    13  N    5.232930   0.319199   0.377567  -0.000057   0.000001   0.000000
    14  O    0.319199   8.270750  -0.074412  -0.000002   0.000000   0.000000
    15  O    0.377567  -0.074412   8.168147   0.000000   0.000000   0.000000
    16  O   -0.000057  -0.000002   0.000000   8.440827   0.122701  -0.051366
    17  N    0.000001   0.000000   0.000000   0.122701   6.283507   0.096216
    18  O    0.000000   0.000000   0.000000  -0.051366   0.096216   8.571268
    19  C    0.000000   0.000000   0.000000  -0.045273   0.416564  -0.044891
    20  O    0.000000   0.000000   0.000000   0.000265  -0.029104   0.000427
    21  H    0.000003   0.000000   0.000000  -0.000360  -0.000703   0.004527
    22  H   -0.000041  -0.000002   0.000001   0.002288   0.000046   0.000552
    23  H   -0.002695   0.002600  -0.000005   0.002167  -0.000032   0.000005
    24  H   -0.004644   0.002328  -0.000010  -0.000495  -0.000230   0.000004
              19         20         21         22         23         24
     1  O    0.000000   0.000000   0.002826   0.002466   0.000000   0.000000
     2  N    0.000000   0.000000  -0.003664  -0.002441   0.000000   0.000002
     3  O    0.000000   0.000000   0.000016  -0.000031   0.000000   0.000000
     4  O    0.000048   0.000000  -0.024046  -0.035616   0.000102  -0.000100
     5  C   -0.000078   0.000000   0.385246   0.391849  -0.003070   0.004859
     6  C    0.001150  -0.000005  -0.025401  -0.038176  -0.029438  -0.030903
     7  O    0.000090   0.000000  -0.000988   0.002174   0.000187   0.000586
     8  N   -0.000004   0.000000   0.000730  -0.001221  -0.001004   0.000184
     9  O    0.000000   0.000000  -0.000044   0.000001  -0.000048  -0.000015
    10  O    0.000000   0.000000  -0.000057  -0.000270   0.003977   0.000276
    11  C   -0.000061   0.000000   0.002997  -0.003485   0.390978   0.383581
    12  O    0.000001   0.000000   0.000041   0.000494  -0.028581  -0.027891
    13  N    0.000000   0.000000   0.000003  -0.000041  -0.002695  -0.004644
    14  O    0.000000   0.000000   0.000000  -0.000002   0.002600   0.002328
    15  O    0.000000   0.000000   0.000000   0.000001  -0.000005  -0.000010
    16  O   -0.045273   0.000265  -0.000360   0.002288   0.002167  -0.000495
    17  N    0.416564  -0.029104  -0.000703   0.000046  -0.000032  -0.000230
    18  O   -0.044891   0.000427   0.004527   0.000552   0.000005   0.000004
    19  C    4.203112   0.570530   0.000001   0.000007   0.000001  -0.000002
    20  O    0.570530   7.799913   0.000000   0.000000   0.000000   0.000000
    21  H    0.000001   0.000000   0.418087  -0.027342  -0.000071  -0.000054
    22  H    0.000007   0.000000  -0.027342   0.469083   0.000248   0.000078
    23  H    0.000001   0.000000  -0.000071   0.000248   0.436741  -0.025275
    24  H   -0.000002   0.000000  -0.000054   0.000078  -0.025275   0.459157
 Mulliken charges:
               1
     1  O   -0.432655
     2  N    0.911907
     3  O   -0.401113
     4  O   -0.486829
     5  C   -0.019434
     6  C    0.637513
     7  O   -0.516053
     8  N    0.915956
     9  O   -0.370201
    10  O   -0.437059
    11  C   -0.024939
    12  O   -0.486383
    13  N    0.906578
    14  O   -0.433081
    15  O   -0.389639
    16  O   -0.497743
    17  N    0.149042
    18  O   -0.582015
    19  C    0.898805
    20  O   -0.342026
    21  H    0.268255
    22  H    0.239338
    23  H    0.253212
    24  H    0.238564
 Sum of Mulliken charges =   0.00000
 Mulliken charges with hydrogens summed into heavy atoms:
               1
     1  O   -0.432655
     2  N    0.911907
     3  O   -0.401113
     4  O   -0.486829
     5  C    0.488159
     6  C    0.637513
     7  O   -0.516053
     8  N    0.915956
     9  O   -0.370201
    10  O   -0.437059
    11  C    0.466837
    12  O   -0.486383
    13  N    0.906578
    14  O   -0.433081
    15  O   -0.389639
    16  O   -0.497743
    17  N    0.149042
    18  O   -0.582015
    19  C    0.898805
    20  O   -0.342026
 Electronic spatial extent (au):  <R**2>=           5596.6519
 Charge=              0.0000 electrons
 Dipole moment (field-independent basis, Debye):
    X=              1.7964    Y=             -3.3073    Z=              2.3729  Tot=              4.4492
 Quadrupole moment (field-independent basis, Debye-Ang):
   XX=           -123.0209   YY=           -126.7986   ZZ=           -112.7649
   XY=              3.4758   XZ=             13.3105   YZ=             -0.3576
 Traceless Quadrupole moment (field-independent basis, Debye-Ang):
   XX=             -2.1594   YY=             -5.9372   ZZ=              8.0966
   XY=              3.4758   XZ=             13.3105   YZ=             -0.3576
 Octapole moment (field-independent basis, Debye-Ang**2):
  XXX=             33.7453  YYY=            -32.3795  ZZZ=             23.7615  XYY=              6.8964
  XXY=             13.7528  XXZ=             -7.8705  XZZ=             14.0922  YZZ=              1.1956
  YYZ=             22.8275  XYZ=             -5.5546
 Hexadecapole moment (field-independent basis, Debye-Ang**3):
 XXXX=          -2964.9454 YYYY=          -2368.0586 ZZZZ=          -1754.7755 XXXY=            -42.9973
 XXXZ=            147.6871 YYYX=             46.2875 YYYZ=             21.8497 ZZZX=            -28.1802
 ZZZY=              2.1458 XXYY=           -870.9286 XXZZ=           -768.4009 YYZZ=           -704.0793
 XXYZ=              7.8522 YYXZ=             28.9633 ZZXY=             13.1835
 N-N= 1.725587049699D+03 E-N=-6.437708508110D+03  KE= 1.263131458777D+03
 Calling FoFJK, ICntrl=      2127 FMM=F ISym2X=0 I1Cent= 0 IOpClX= 0 NMat=1 NMatS=1 NMatT=0.
 ***** Axes restored to original set *****
 -------------------------------------------------------------------
 Center     Atomic                   Forces (Hartrees/Bohr)
 Number     Number              X              Y              Z
 -------------------------------------------------------------------
      1        8           0.030139619   -0.007496142    0.081854116
      2        7          -0.009066430   -0.011241642    0.008450542
      3        8           0.026410058    0.050587355   -0.081883436
      4        8          -0.038815217   -0.017550016   -0.009605313
      5        6          -0.013771960    0.005227575   -0.031733367
      6        6          -0.007614652   -0.032084243    0.037789784
      7        8           0.000112025   -0.019411835   -0.034511166
      8        7           0.006467799    0.022835994   -0.025125993
      9        8          -0.011067358   -0.093945473    0.047753062
     10        8           0.004315972    0.077312732    0.023644509
     11        6           0.020373230    0.016331732   -0.004348789
     12        8           0.040255165   -0.018358948   -0.001258797
     13        7           0.006799681   -0.018828498    0.008980726
     14        8          -0.064259837   -0.035375581    0.046246722
     15        8           0.010287961    0.083216945   -0.057494938
     16        8          -0.011568985    0.043593469   -0.007228510
     17        7           0.031064541    0.073669378    0.124793877
     18        8          -0.013541929    0.003269201   -0.002511282
     19        6           0.021992937   -0.055535254   -0.054335514
     20        8          -0.021466218   -0.064890335   -0.099466071
     21        1           0.012181560   -0.007591394    0.008276964
     22        1          -0.000019300    0.009093848    0.013472947
     23        1          -0.007640811    0.005019577    0.011843561
     24        1          -0.011567851   -0.007848446   -0.003603637
 -------------------------------------------------------------------
 Cartesian Forces:  Max     0.124793877 RMS     0.039335561

 GradGradGradGradGradGradGradGradGradGradGradGradGradGradGradGradGradGrad
 Berny optimization.
 FormGI is forming the generalized inverse of G from B-inverse, IUseBI=4.
 Internal  Forces:  Max     0.193750559 RMS     0.035230913
 Search for a local minimum.
 Step number   1 out of a maximum of  111
 All quantities printed in internal units (Hartrees-Bohrs-Radians)
 Mixed Optimization -- RFO/linear search
 Second derivative matrix not updated -- first step.
 ITU=  0
     Eigenvalues ---    0.00230   0.00230   0.00750   0.00883   0.01080
     Eigenvalues ---    0.01086   0.01187   0.01242   0.01303   0.01319
     Eigenvalues ---    0.02262   0.02904   0.02908   0.02947   0.04593
     Eigenvalues ---    0.04620   0.04620   0.04958   0.04973   0.05743
     Eigenvalues ---    0.05807   0.06497   0.09138   0.11364   0.11375
     Eigenvalues ---    0.13786   0.13795   0.17116   0.18598   0.22006
     Eigenvalues ---    0.22031   0.24993   0.24994   0.24999   0.25000
     Eigenvalues ---    0.25000   0.25000   0.25000   0.25000   0.25000
     Eigenvalues ---    0.25000   0.25000   0.25000   0.26488   0.26907
     Eigenvalues ---    0.33784   0.34095   0.34119   0.34317   0.34747
     Eigenvalues ---    0.36825   0.39421   0.40424   0.41077   0.41252
     Eigenvalues ---    0.43036   0.43106   0.44293   0.75830   0.90711
     Eigenvalues ---    0.90849   0.91922   0.92143   0.92307   0.92673
     Eigenvalues ---    1.16339
 RFO step:  Lambda=-1.72469555D-01 EMin= 2.30000000D-03
 Linear search not attempted -- first point.
 Maximum step size (   0.300) exceeded in Quadratic search.
    -- Step size scaled by   0.578
 Iteration  1 RMS(Cart)=  0.07457610 RMS(Int)=  0.00203397
 Iteration  2 RMS(Cart)=  0.00282894 RMS(Int)=  0.00004950
 Iteration  3 RMS(Cart)=  0.00000710 RMS(Int)=  0.00004933
 Iteration  4 RMS(Cart)=  0.00000000 RMS(Int)=  0.00004933
 Variable       Old X    -DE/DX   Delta X   Delta X   Delta X     New X
                                 (Linear)    (Quad)   (Total)
    R1        2.32544  -0.08735   0.00000  -0.04673  -0.04673   2.27871
    R2        2.32060  -0.09976   0.00000  -0.05284  -0.05284   2.26776
    R3        2.67539  -0.05778   0.00000  -0.05536  -0.05536   2.62003
    R4        2.70116  -0.01121   0.00000  -0.01112  -0.01112   2.69004
    R5        2.95567  -0.01486   0.00000  -0.01964  -0.01964   2.93603
    R6        2.07130  -0.01602   0.00000  -0.01804  -0.01804   2.05326
    R7        2.07169  -0.01584   0.00000  -0.01784  -0.01784   2.05385
    R8        2.70982  -0.01734   0.00000  -0.01739  -0.01739   2.69243
    R9        2.94592  -0.01777   0.00000  -0.02327  -0.02327   2.92265
   R10        2.76112  -0.03776   0.00000  -0.04039  -0.04039   2.72073
   R11        2.66105  -0.04663   0.00000  -0.04381  -0.04381   2.61724
   R12        2.31725  -0.10595   0.00000  -0.05574  -0.05574   2.26151
   R13        2.31888  -0.08058   0.00000  -0.04254  -0.04254   2.27634
   R14        2.69886  -0.01025   0.00000  -0.01013  -0.01013   2.68873
   R15        2.06799  -0.01407   0.00000  -0.01578  -0.01578   2.05220
   R16        2.07696  -0.01435   0.00000  -0.01626  -0.01626   2.06070
   R17        2.67625  -0.05542   0.00000  -0.05317  -0.05317   2.62308
   R18        2.32607  -0.08657   0.00000  -0.04637  -0.04637   2.27970
   R19        2.31961  -0.10163   0.00000  -0.05373  -0.05373   2.26588
   R20        2.72347  -0.04934   0.00000  -0.05035  -0.05035   2.67312
   R21        2.40245   0.01262   0.00000   0.00784   0.00784   2.41029
   R22        2.79387  -0.19375   0.00000  -0.21548  -0.21548   2.57839
   R23        2.22729  -0.12051   0.00000  -0.05217  -0.05217   2.17512
    A1        2.27461  -0.00702   0.00000  -0.00961  -0.00961   2.26500
    A2        2.04318   0.00656   0.00000   0.00899   0.00899   2.05217
    A3        1.96534   0.00046   0.00000   0.00063   0.00063   1.96596
    A4        1.96720   0.00231   0.00000   0.00316   0.00316   1.97036
    A5        1.92206  -0.02265   0.00000  -0.03474  -0.03479   1.88728
    A6        1.92820   0.00549   0.00000   0.00547   0.00532   1.93352
    A7        1.89163   0.00943   0.00000   0.01499   0.01495   1.90658
    A8        1.92220   0.00408   0.00000   0.00443   0.00434   1.92654
    A9        1.91859   0.00344   0.00000   0.00483   0.00487   1.92346
   A10        1.88048   0.00089   0.00000   0.00623   0.00614   1.88661
   A11        2.02355  -0.00321   0.00000  -0.00504  -0.00500   2.01855
   A12        1.94462   0.01069   0.00000   0.02129   0.02125   1.96587
   A13        1.90009   0.00509   0.00000   0.01096   0.01089   1.91098
   A14        1.91376  -0.00324   0.00000  -0.00624  -0.00630   1.90746
   A15        1.88022  -0.00634   0.00000  -0.01724  -0.01727   1.86295
   A16        1.78515  -0.00350   0.00000  -0.00484  -0.00508   1.78007
   A17        2.03820   0.02129   0.00000   0.02915   0.02915   2.06734
   A18        1.96515  -0.00429   0.00000  -0.00585  -0.00585   1.95930
   A19        2.04625   0.01106   0.00000   0.01516   0.01516   2.06141
   A20        2.27138  -0.00673   0.00000  -0.00920  -0.00920   2.26218
   A21        1.92607  -0.01699   0.00000  -0.02592  -0.02595   1.90012
   A22        1.94428  -0.00116   0.00000  -0.00455  -0.00456   1.93971
   A23        1.88323   0.00450   0.00000   0.00672   0.00676   1.88999
   A24        1.90480   0.00803   0.00000   0.01190   0.01174   1.91654
   A25        1.91626   0.00522   0.00000   0.00793   0.00792   1.92418
   A26        1.88868   0.00080   0.00000   0.00461   0.00456   1.89325
   A27        1.96608   0.00415   0.00000   0.00569   0.00569   1.97177
   A28        2.04096   0.00556   0.00000   0.00762   0.00762   2.04857
   A29        1.96717   0.00053   0.00000   0.00073   0.00073   1.96790
   A30        2.27505  -0.00610   0.00000  -0.00834  -0.00834   2.26671
   A31        1.96843  -0.00430   0.00000  -0.00589  -0.00589   1.96254
   A32        2.10246   0.02673   0.00000   0.03655   0.03655   2.13902
   A33        2.08166  -0.04081   0.00000  -0.05589  -0.05589   2.02576
   A34        2.09850   0.01405   0.00000   0.01921   0.01921   2.11770
   A35        3.12445   0.01301   0.00000   0.03442   0.03442   3.15887
   A36        3.12802   0.00488   0.00000   0.01290   0.01290   3.14093
    D1        3.12957   0.00015   0.00000   0.00039   0.00039   3.12996
    D2        0.06959  -0.00017   0.00000  -0.00058  -0.00058   0.06901
    D3       -3.08230  -0.00013   0.00000  -0.00037  -0.00037  -3.08266
    D4        3.09626  -0.00104   0.00000  -0.00310  -0.00302   3.09324
    D5        0.96901   0.00530   0.00000   0.01090   0.01093   0.97994
    D6       -1.08758  -0.00457   0.00000  -0.00874  -0.00886  -1.09643
    D7       -2.69782   0.00568   0.00000   0.01560   0.01560  -2.68223
    D8        1.38037   0.00339   0.00000   0.00958   0.00962   1.39000
    D9       -0.57538  -0.00093   0.00000  -0.00202  -0.00211  -0.57749
   D10       -0.56701   0.00027   0.00000   0.00238   0.00241  -0.56460
   D11       -2.77200  -0.00203   0.00000  -0.00364  -0.00356  -2.77556
   D12        1.55543  -0.00634   0.00000  -0.01524  -0.01529   1.54014
   D13        1.50236   0.00599   0.00000   0.01571   0.01572   1.51808
   D14       -0.70263   0.00369   0.00000   0.00969   0.00975  -0.69289
   D15       -2.65839  -0.00062   0.00000  -0.00191  -0.00198  -2.66037
   D16       -0.94866  -0.00184   0.00000  -0.00303  -0.00298  -0.95164
   D17        1.27180   0.00742   0.00000   0.01672   0.01669   1.28849
   D18       -3.08165  -0.00137   0.00000  -0.00051  -0.00053  -3.08219
   D19       -0.92806  -0.00188   0.00000  -0.00325  -0.00328  -0.93134
   D20        1.19070  -0.00413   0.00000  -0.00900  -0.00894   1.18176
   D21       -3.02177  -0.00102   0.00000  -0.00182  -0.00181  -3.02358
   D22        3.09110  -0.00343   0.00000  -0.00831  -0.00835   3.08275
   D23       -1.07334  -0.00568   0.00000  -0.01406  -0.01400  -1.08734
   D24        0.99739  -0.00257   0.00000  -0.00689  -0.00688   0.99051
   D25        1.09933   0.00677   0.00000   0.01609   0.01602   1.11535
   D26       -3.06510   0.00452   0.00000   0.01034   0.01036  -3.05474
   D27       -0.99438   0.00762   0.00000   0.01751   0.01749  -0.97689
   D28       -1.31946   0.01032   0.00000   0.02668   0.02667  -1.29278
   D29        0.88808   0.00545   0.00000   0.01615   0.01609   0.90417
   D30        2.90438  -0.00229   0.00000   0.00014   0.00021   2.90459
   D31        3.12666  -0.00037   0.00000  -0.00116  -0.00118   3.12548
   D32       -0.04221   0.00084   0.00000   0.00264   0.00266  -0.03955
   D33        3.10986   0.00177   0.00000   0.00491   0.00489   3.11476
   D34       -3.06300  -0.00225   0.00000  -0.00526  -0.00529  -3.06829
   D35        1.07816   0.00493   0.00000   0.00940   0.00950   1.08766
   D36       -0.98931  -0.00392   0.00000  -0.00799  -0.00806  -0.99738
   D37       -0.00573  -0.00017   0.00000  -0.00052  -0.00052  -0.00625
   D38        3.13812  -0.00015   0.00000  -0.00048  -0.00048   3.13764
   D39       -3.13886   0.00001   0.00000   0.00003   0.00003  -3.13883
   D40        0.44854   0.00600   0.00000   0.01974   0.01970   0.46824
   D41       -2.72899   0.00509   0.00000   0.01590   0.01594  -2.71305
   D42        3.10530  -0.00204   0.00000  -0.00542  -0.00546   3.09984
         Item               Value     Threshold  Converged?
 Maximum Force            0.193751     0.000450     NO 
 RMS     Force            0.035231     0.000300     NO 
 Maximum Displacement     0.317742     0.001800     NO 
 RMS     Displacement     0.075874     0.001200     NO 
 Predicted change in Energy=-7.903083D-02
 GradGradGradGradGradGradGradGradGradGradGradGradGradGradGradGradGradGrad

                          Input orientation:                          
 ---------------------------------------------------------------------
 Center     Atomic      Atomic             Coordinates (Angstroms)
 Number     Number       Type             X           Y           Z
 ---------------------------------------------------------------------
      1          8           0       -3.038799   -1.878482   -0.575249
      2          7           0       -2.533990   -1.902769    0.519573
      3          8           0       -2.860729   -2.508913    1.502394
      4          8           0       -1.393154   -1.140145    0.717483
      5          6           0       -1.044327   -0.359802   -0.420834
      6          6           0        0.198698    0.498132   -0.056477
      7          8           0        0.345802    1.712391   -0.787169
      8          7           0        0.353151    1.653031   -2.170860
      9          8           0        0.464689    2.734776   -2.670431
     10          8           0        0.276276    0.570168   -2.692904
     11          6           0        1.518394   -0.305031   -0.129277
     12          8           0        1.388336   -1.476977    0.666986
     13          7           0        2.560529   -2.217102    0.737219
     14          8           0        3.516959   -1.800100    0.131688
     15          8           0        2.447714   -3.201392    1.412625
     16          8           0        0.143253    0.856706    1.336801
     17          7           0       -0.821713    1.857239    1.598995
     18          8           0       -1.855388    2.021718    0.870098
     19          6           0       -0.611279    2.615836    2.713402
     20          8           0       -0.446519    3.269338    3.646485
     21          1           0       -1.871205    0.279235   -0.718269
     22          1           0       -0.813338   -1.021509   -1.251518
     23          1           0        1.753497   -0.580015   -1.153222
     24          1           0        2.323141    0.323668    0.253155
 ---------------------------------------------------------------------
                    Distance matrix (angstroms):
                    1          2          3          4          5
     1  O    0.000000
     2  N    1.205842   0.000000
     3  O    2.178475   1.200044   0.000000
     4  O    2.219109   1.386460   2.154853   0.000000
     5  C    2.511603   2.341839   3.408343   1.423509   0.000000
     6  C    4.049544   3.682899   4.564263   2.411837   1.553679
     7  O    4.939109   4.803141   5.774370   3.664001   2.522032
     8  N    5.150037   5.312036   6.414327   4.381088   3.011151
     9  O    6.160062   6.377698   7.481120   5.472161   4.112691
    10  O    4.633580   4.932851   6.076353   4.164481   2.787676
    11  C    4.841761   4.404043   5.166834   3.145080   2.579835
    12  O    4.615612   3.948122   4.451668   2.802265   2.889512
    13  N    5.761051   5.108846   5.482763   4.097784   4.217303
    14  O    6.594230   6.064238   6.561719   4.988778   4.815088
    15  O    5.983607   5.225068   5.354172   4.414094   4.861127
    16  O    4.611143   3.930674   4.514280   2.594516   2.445305
    17  N    4.857820   4.270212   4.819772   3.176148   3.007413
    18  O    4.324471   3.998121   4.683709   3.199114   2.827713
    19  C    6.075111   5.378429   5.726223   4.324629   4.343430
    20  O    7.144438   6.394201   6.619193   5.377612   5.483713
    21  H    2.457534   2.594741   3.699226   2.074742   1.086536
    22  H    2.478793   2.621836   3.740082   2.056021   1.086853
    23  H    4.998617   4.788577   5.662511   3.703335   2.900467
    24  H    5.855435   5.349741   6.037932   4.021094   3.501605
                    6          7          8          9         10
     6  C    0.000000
     7  O    1.424772   0.000000
     8  N    2.414179   1.384983   0.000000
     9  O    3.450519   2.146178   1.196739   0.000000
    10  O    2.638552   2.222911   1.204588   2.172909   0.000000
    11  C    1.546599   2.424414   3.059388   4.099778   2.980103
    12  O    2.416545   3.656981   4.349934   5.452553   4.088562
    13  N    3.685199   4.761269   5.320467   6.365981   4.975182
    14  O    4.040809   4.820594   5.218766   6.142746   4.909025
    15  O    4.571959   5.779480   6.387016   7.472738   5.982907
    16  O    1.439747   2.298798   3.603037   4.437158   4.042069
    17  N    2.372551   2.660423   3.953961   4.544546   4.613299
    18  O    2.720133   2.772626   3.776374   4.292617   4.398406
    19  C    3.579519   3.739815   5.070811   5.491585   5.848133
    20  O    4.669883   4.765411   6.090437   6.404645   6.927901
    21  H    2.184120   2.640796   2.990835   3.911140   2.931808
    22  H    2.182121   3.005567   3.059256   4.213828   2.407963
    23  H    2.186928   2.714908   2.825429   3.866625   2.423990
    24  H    2.153966   2.630721   3.394689   4.220739   3.595787
                   11         12         13         14         15
    11  C    0.000000
    12  O    1.422817   0.000000
    13  N    2.343689   1.388076   0.000000
    14  O    2.509502   2.218556   1.206365   0.000000
    15  O    3.410279   2.156819   1.199052   2.178922   0.000000
    16  O    2.321644   2.728545   3.956136   4.460136   4.667381
    17  N    3.624698   4.107305   5.364930   5.861160   6.026079
    18  O    4.218402   4.775339   6.122546   6.634279   6.789101
    19  C    4.598673   4.993736   6.109251   6.573286   6.699970
    20  O    5.558181   5.896746   6.899796   7.332269   7.432164
    21  H    3.489650   3.953203   5.290596   5.837668   5.942098
    22  H    2.685096   2.955584   4.094814   4.612043   4.741730
    23  H    1.085980   2.061805   2.627759   2.499879   3.733245
    24  H    1.090475   2.070613   2.597341   2.439334   3.712942
                   16         17         18         19         20
    16  O    0.000000
    17  N    1.414557   0.000000
    18  O    2.360006   1.275472   0.000000
    19  C    2.357729   1.364425   2.301858   0.000000
    20  O    3.391646   2.515355   3.354071   1.151023   0.000000
    21  H    2.935102   2.993533   2.357839   4.338603   5.479189
    22  H    3.337986   4.051257   3.853356   5.384394   6.521990
    23  H    3.295037   4.488498   4.887422   5.545846   6.534124
    24  H    2.492053   3.748764   4.552373   4.462922   5.278511
                   21         22         23         24
    21  H    0.000000
    22  H    1.759367   0.000000
    23  H    3.750461   2.606381   0.000000
    24  H    4.305598   3.729751   1.766079   0.000000
 Stoichiometry    C4H4N4O12
 Framework group  C1[X(C4H4N4O12)]
 Deg. of freedom    66
 Full point group                 C1      NOp   1
 Largest Abelian subgroup         C1      NOp   1
 Largest concise Abelian subgroup C1      NOp   1
                         Standard orientation:                         
 ---------------------------------------------------------------------
 Center     Atomic      Atomic             Coordinates (Angstroms)
 Number     Number       Type             X           Y           Z
 ---------------------------------------------------------------------
      1          8           0       -0.363417    2.710808   -2.390255
      2          7           0       -0.572975    2.839585   -1.209765
      3          8           0       -0.925530    3.807170   -0.593655
      4          8           0       -0.406800    1.724402   -0.402904
      5          6           0        0.084659    0.593982   -1.114942
      6          6           0        0.295436   -0.562905   -0.099508
      7          8           0        1.280345   -1.527564   -0.459179
      8          7           0        1.171120   -2.155028   -1.689031
      9          8           0        2.063241   -2.928480   -1.884166
     10          8           0        0.223023   -1.885504   -2.381492
     11          6           0       -1.022849   -1.287910    0.258906
     12          8           0       -1.975375   -0.323605    0.691596
     13          7           0       -3.164914   -0.893340    1.124207
     14          8           0       -3.252953   -2.095622    1.078561
     15          8           0       -3.963032   -0.077550    1.491934
     16          8           0        0.693057   -0.018861    1.172807
     17          7           0        2.032555    0.435794    1.170930
     18          8           0        2.621752    0.831034    0.110996
     19          6           0        2.654138    0.474944    2.384914
     20          8           0        3.196099    0.508947    3.399792
     21          1           0        1.018273    0.831046   -1.617662
     22          1           0       -0.640949    0.303161   -1.870034
     23          1           0       -1.413797   -1.834250   -0.594337
     24          1           0       -0.815607   -1.999100    1.059153
 ---------------------------------------------------------------------
 Rotational constants (GHZ):           0.3054571           0.2645600           0.2352918
 Standard basis: 6-31G(d) (6D, 7F)
 There are   308 symmetry adapted cartesian basis functions of A   symmetry.
 There are   308 symmetry adapted basis functions of A   symmetry.
   308 basis functions,   576 primitive gaussians,   308 cartesian basis functions
    76 alpha electrons       76 beta electrons
       nuclear repulsion energy      1754.1862630217 Hartrees.
 NAtoms=   24 NActive=   24 NUniq=   24 SFac= 1.00D+00 NAtFMM=   60 NAOKFM=F Big=F
 Integral buffers will be    131072 words long.
 Raffenetti 1 integral format.
 Two-electron integral symmetry is turned on.
 One-electron integrals computed using PRISM.
 NBasis=   308 RedAO= T EigKep=  1.78D-03  NBF=   308
 NBsUse=   308 1.00D-06 EigRej= -1.00D+00 NBFU=   308
 Initial guess from the checkpoint file:  "C:\g16w\Scratch\Gau-5628.chk"
 B after Tr=     0.000000    0.000000    0.000000
         Rot=    0.999016    0.005499    0.029676   -0.032487 Ang=   5.08 deg.
 ExpMin= 1.61D-01 ExpMax= 5.48D+03 ExpMxC= 8.25D+02 IAcc=3 IRadAn=         5 AccDes= 0.00D+00
 Harris functional with IExCor=  205 and IRadAn=       5 diagonalized for initial guess.
 HarFok:  IExCor=  205 AccDes= 0.00D+00 IRadAn=         5 IDoV= 1 UseB2=F ITyADJ=14
 ICtDFT=  3500011 ScaDFX=  1.000000  1.000000  1.000000  1.000000
 FoFCou: FMM=F IPFlag=           0 FMFlag=      100000 FMFlg1=           0
         NFxFlg=           0 DoJE=T BraDBF=F KetDBF=T FulRan=T
         wScrn=  0.000000 ICntrl=       500 IOpCl=  0 I1Cent=   200000004 NGrid=           0
         NMat0=    1 NMatS0=      1 NMatT0=    0 NMatD0=    1 NMtDS0=    0 NMtDT0=    0
 Petite list used in FoFCou.
 Requested convergence on RMS density matrix=1.00D-08 within 128 cycles.
 Requested convergence on MAX density matrix=1.00D-06.
 Requested convergence on             energy=1.00D-06.
 No special actions if energy rises.
 Integral accuracy reduced to 1.0D-05 until final iterations.
 Initial convergence to 1.0D-05 achieved.  Increase integral accuracy.
 SCF Done:  E(RHF) =  -1269.14377786     A.U. after   17 cycles
            NFock= 17  Conv=0.32D-08     -V/T= 2.0036
 Calling FoFJK, ICntrl=      2127 FMM=F ISym2X=0 I1Cent= 0 IOpClX= 0 NMat=1 NMatS=1 NMatT=0.
 ***** Axes restored to original set *****
 -------------------------------------------------------------------
 Center     Atomic                   Forces (Hartrees/Bohr)
 Number     Number              X              Y              Z
 -------------------------------------------------------------------
      1        8           0.017426788   -0.002692635    0.043511557
      2        7           0.000433278   -0.004646898    0.010328889
      3        8           0.012664142    0.026585927   -0.046152879
      4        8          -0.028544642   -0.011257645   -0.009156287
      5        6          -0.007128459    0.005653199   -0.023559509
      6        6          -0.002077192   -0.028303546    0.030911872
      7        8           0.001151435   -0.011140575   -0.022320192
      8        7           0.004263934    0.020167119   -0.010074889
      9        8          -0.006450190   -0.054018059    0.023857625
     10        8           0.001392541    0.038471724    0.017374798
     11        6           0.011836186    0.012040891   -0.004560349
     12        8           0.029408787   -0.011148576   -0.002310404
     13        7          -0.003423670   -0.011155075    0.007563833
     14        8          -0.035447019   -0.017937429    0.024044200
     15        8           0.007689207    0.045577992   -0.032011468
     16        8          -0.011788216    0.032801461   -0.013418306
     17        7           0.035955604    0.058277282    0.107342596
     18        8          -0.015120543    0.000527395   -0.006643663
     19        6           0.002762937   -0.054523043   -0.068260556
     20        8          -0.011035410   -0.030485963   -0.045316959
     21        1           0.007319790   -0.004197768    0.006251315
     22        1           0.001242223    0.004154053    0.008096976
     23        1          -0.005173468    0.001986778    0.006090335
     24        1          -0.007358041   -0.004736607   -0.001588538
 -------------------------------------------------------------------
 Cartesian Forces:  Max     0.107342596 RMS     0.026612915

 GradGradGradGradGradGradGradGradGradGradGradGradGradGradGradGradGradGrad
 Berny optimization.
 Using GEDIIS/GDIIS optimizer.
 FormGI is forming the generalized inverse of G from B-inverse, IUseBI=4.
 Internal  Forces:  Max     0.141304865 RMS     0.021505646
 Search for a local minimum.
 Step number   2 out of a maximum of  111
 All quantities printed in internal units (Hartrees-Bohrs-Radians)
 Mixed Optimization -- RFO/linear search
 Update second derivatives using D2CorX and points    1    2
 DE= -8.28D-02 DEPred=-7.90D-02 R= 1.05D+00
 TightC=F SS=  1.41D+00  RLast= 3.07D-01 DXNew= 5.0454D-01 9.2136D-01
 Trust test= 1.05D+00 RLast= 3.07D-01 DXMaxT set to 5.05D-01
 ITU=  1  0
 Use linear search instead of GDIIS.
     Eigenvalues ---    0.00230   0.00230   0.00750   0.00884   0.01080
     Eigenvalues ---    0.01086   0.01187   0.01242   0.01303   0.01319
     Eigenvalues ---    0.02303   0.02892   0.02901   0.02931   0.04489
     Eigenvalues ---    0.04620   0.04662   0.05132   0.05196   0.05751
     Eigenvalues ---    0.05833   0.06330   0.09444   0.11160   0.11189
     Eigenvalues ---    0.13632   0.13683   0.17243   0.18657   0.22001
     Eigenvalues ---    0.22175   0.23282   0.24996   0.24996   0.24999
     Eigenvalues ---    0.25000   0.25000   0.25000   0.25000   0.25000
     Eigenvalues ---    0.25000   0.25000   0.25621   0.26538   0.26986
     Eigenvalues ---    0.30357   0.33801   0.34111   0.34177   0.34414
     Eigenvalues ---    0.36900   0.39636   0.40466   0.41103   0.41273
     Eigenvalues ---    0.43047   0.43097   0.44166   0.75480   0.90768
     Eigenvalues ---    0.91125   0.91781   0.92031   0.92485   0.92981
     Eigenvalues ---    1.19398
 RFO step:  Lambda=-1.50274179D-02 EMin= 2.29999766D-03
 Quartic linear search produced a step of  1.08081.
 Iteration  1 RMS(Cart)=  0.08333399 RMS(Int)=  0.01693281
 Iteration  2 RMS(Cart)=  0.02452692 RMS(Int)=  0.00033488
 Iteration  3 RMS(Cart)=  0.00006007 RMS(Int)=  0.00033302
 Iteration  4 RMS(Cart)=  0.00000001 RMS(Int)=  0.00033302
 Variable       Old X    -DE/DX   Delta X   Delta X   Delta X     New X
                                 (Linear)    (Quad)   (Total)
    R1        2.27871  -0.04686  -0.05051   0.00001  -0.05049   2.22822
    R2        2.26776  -0.05468  -0.05711  -0.00273  -0.05984   2.20791
    R3        2.62003  -0.03680  -0.05983  -0.01179  -0.07162   2.54842
    R4        2.69004  -0.00604  -0.01201   0.00322  -0.00880   2.68125
    R5        2.93603  -0.00773  -0.02123   0.01334  -0.00789   2.92813
    R6        2.05326  -0.00975  -0.01950   0.00066  -0.01884   2.03441
    R7        2.05385  -0.00845  -0.01928   0.00755  -0.01173   2.04213
    R8        2.69243  -0.01005  -0.01880   0.00167  -0.01713   2.67530
    R9        2.92265  -0.00957  -0.02515   0.01316  -0.01198   2.91066
   R10        2.72073  -0.02383  -0.04365  -0.00472  -0.04837   2.67236
   R11        2.61724  -0.03133  -0.04736  -0.01717  -0.06453   2.55271
   R12        2.26151  -0.05939  -0.06025  -0.00589  -0.06613   2.19538
   R13        2.27634  -0.04220  -0.04597   0.00210  -0.04387   2.23247
   R14        2.68873  -0.00576  -0.01095   0.00176  -0.00919   2.67954
   R15        2.05220  -0.00737  -0.01706   0.00747  -0.00959   2.04261
   R16        2.06070  -0.00872  -0.01757   0.00075  -0.01682   2.04388
   R17        2.62308  -0.03514  -0.05746  -0.01053  -0.06799   2.55509
   R18        2.27970  -0.04637  -0.05012   0.00017  -0.04994   2.22976
   R19        2.26588  -0.05617  -0.05807  -0.00385  -0.06192   2.20396
   R20        2.67312  -0.02949  -0.05442   0.00093  -0.05348   2.61964
   R21        2.41029   0.01612   0.00847   0.02469   0.03316   2.44345
   R22        2.57839  -0.14130  -0.23290  -0.12817  -0.36107   2.21732
   R23        2.17512  -0.05562  -0.05638   0.01299  -0.04339   2.13172
    A1        2.26500  -0.00437  -0.01039   0.00142  -0.00897   2.25603
    A2        2.05217   0.00237   0.00971  -0.01471  -0.00500   2.04717
    A3        1.96596   0.00200   0.00068   0.01332   0.01399   1.97996
    A4        1.97036   0.00728   0.00341   0.04526   0.04867   2.01903
    A5        1.88728  -0.01206  -0.03760   0.02886  -0.00881   1.87847
    A6        1.93352   0.00203   0.00575  -0.00968  -0.00414   1.92938
    A7        1.90658   0.00545   0.01616  -0.00592   0.01020   1.91678
    A8        1.92654   0.00170   0.00469  -0.00616  -0.00160   1.92494
    A9        1.92346   0.00137   0.00526  -0.00838  -0.00305   1.92041
   A10        1.88661   0.00167   0.00663   0.00089   0.00742   1.89404
   A11        2.01855  -0.00296  -0.00541  -0.03175  -0.03733   1.98122
   A12        1.96587   0.00646   0.02297  -0.01845   0.00231   1.96818
   A13        1.91098   0.00528   0.01177   0.03912   0.05011   1.96108
   A14        1.90746  -0.00246  -0.00681  -0.02230  -0.02960   1.87786
   A15        1.86295  -0.00586  -0.01866   0.00042  -0.01724   1.84572
   A16        1.78007  -0.00073  -0.00549   0.04472   0.03797   1.81803
   A17        2.06734   0.00825   0.03150  -0.04341  -0.01190   2.05544
   A18        1.95930   0.00078  -0.00632   0.02786   0.02152   1.98083
   A19        2.06141   0.00074   0.01638  -0.05030  -0.03393   2.02748
   A20        2.26218  -0.00149  -0.00994   0.02251   0.01256   2.27474
   A21        1.90012  -0.00897  -0.02805   0.02205  -0.00604   1.89408
   A22        1.93971  -0.00127  -0.00493   0.00229  -0.00266   1.93706
   A23        1.88999   0.00227   0.00731  -0.00675   0.00061   1.89060
   A24        1.91654   0.00402   0.01269  -0.01175   0.00074   1.91728
   A25        1.92418   0.00279   0.00856  -0.00580   0.00274   1.92692
   A26        1.89325   0.00123   0.00493  -0.00022   0.00466   1.89791
   A27        1.97177   0.00778   0.00615   0.03978   0.04593   2.01769
   A28        2.04857   0.00183   0.00823  -0.01390  -0.00567   2.04291
   A29        1.96790   0.00191   0.00079   0.01224   0.01303   1.98092
   A30        2.26671  -0.00374  -0.00902   0.00166  -0.00736   2.25935
   A31        1.96254   0.00852  -0.00637   0.08851   0.08214   2.04468
   A32        2.13902   0.01204   0.03951  -0.04135  -0.00187   2.13715
   A33        2.02576  -0.02185  -0.06041   0.03597  -0.02446   2.00131
   A34        2.11770   0.00977   0.02076   0.00513   0.02586   2.14356
   A35        3.15887   0.00620   0.03720  -0.15103  -0.11383   3.04504
   A36        3.14093   0.00283   0.01395  -0.03938  -0.02543   3.11549
    D1        3.12996   0.00019   0.00043   0.00314   0.00356   3.13353
    D2        0.06901  -0.00014  -0.00062   0.00236   0.00172   0.07074
    D3       -3.08266  -0.00003  -0.00040   0.00517   0.00478  -3.07788
    D4        3.09324  -0.00077  -0.00327   0.00135  -0.00180   3.09144
    D5        0.97994   0.00362   0.01182  -0.00363   0.00821   0.98815
    D6       -1.09643  -0.00309  -0.00957   0.00488  -0.00484  -1.10127
    D7       -2.68223   0.00419   0.01686  -0.02238  -0.00526  -2.68749
    D8        1.39000   0.00439   0.01040   0.05381   0.06432   1.45432
    D9       -0.57749  -0.00149  -0.00228  -0.01388  -0.01660  -0.59408
   D10       -0.56460   0.00008   0.00261  -0.01972  -0.01680  -0.58140
   D11       -2.77556   0.00028  -0.00385   0.05647   0.05278  -2.72278
   D12        1.54014  -0.00560  -0.01653  -0.01123  -0.02814   1.51200
   D13        1.51808   0.00409   0.01699  -0.02781  -0.01055   1.50753
   D14       -0.69289   0.00429   0.01053   0.04838   0.05904  -0.63385
   D15       -2.66037  -0.00159  -0.00214  -0.01931  -0.02188  -2.68225
   D16       -0.95164   0.00027  -0.00322   0.05803   0.05458  -0.89705
   D17        1.28849   0.00457   0.01804  -0.01355   0.00490   1.29339
   D18       -3.08219  -0.00017  -0.00057   0.02813   0.02737  -3.05481
   D19       -0.93134  -0.00275  -0.00355  -0.04512  -0.04874  -0.98008
   D20        1.18176  -0.00444  -0.00966  -0.04380  -0.05343   1.12833
   D21       -3.02358  -0.00227  -0.00196  -0.04693  -0.04891  -3.07249
   D22        3.08275  -0.00191  -0.00902   0.03135   0.02217   3.10492
   D23       -1.08734  -0.00360  -0.01514   0.03267   0.01749  -1.06985
   D24        0.99051  -0.00142  -0.00744   0.02954   0.02200   1.01250
   D25        1.11535   0.00595   0.01731   0.01833   0.03571   1.15107
   D26       -3.05474   0.00426   0.01120   0.01965   0.03103  -3.02371
   D27       -0.97689   0.00644   0.01890   0.01652   0.03554  -0.94135
   D28       -1.29278   0.00875   0.02883   0.03153   0.06118  -1.23161
   D29        0.90417   0.00459   0.01739   0.01721   0.03463   0.93880
   D30        2.90459  -0.00063   0.00022   0.01180   0.01117   2.91576
   D31        3.12548  -0.00020  -0.00128   0.01493   0.01370   3.13919
   D32       -0.03955   0.00105   0.00288   0.01800   0.02083  -0.01872
   D33        3.11476   0.00148   0.00529   0.00230   0.00763   3.12239
   D34       -3.06829  -0.00163  -0.00572   0.00111  -0.00464  -3.07294
   D35        1.08766   0.00313   0.01027  -0.00840   0.00199   1.08966
   D36       -0.99738  -0.00265  -0.00872   0.00284  -0.00596  -1.00333
   D37       -0.00625  -0.00009  -0.00056   0.00382   0.00327  -0.00298
   D38        3.13764  -0.00013  -0.00052   0.00095   0.00042   3.13806
   D39       -3.13883  -0.00007   0.00003  -0.00345  -0.00341   3.14094
   D40        0.46824   0.00559   0.02129   0.01317   0.03431   0.50254
   D41       -2.71305   0.00454   0.01723   0.00611   0.02349  -2.68956
   D42        3.09984  -0.00180  -0.00590  -0.00683  -0.01288   3.08697
         Item               Value     Threshold  Converged?
 Maximum Force            0.141305     0.000450     NO 
 RMS     Force            0.021506     0.000300     NO 
 Maximum Displacement     0.367821     0.001800     NO 
 RMS     Displacement     0.091969     0.001200     NO 
 Predicted change in Energy=-5.880190D-02
 GradGradGradGradGradGradGradGradGradGradGradGradGradGradGradGradGradGrad

                          Input orientation:                          
 ---------------------------------------------------------------------
 Center     Atomic      Atomic             Coordinates (Angstroms)
 Number     Number       Type             X           Y           Z
 ---------------------------------------------------------------------
      1          8           0       -3.003331   -1.896507   -0.584711
      2          7           0       -2.523520   -1.878674    0.492227
      3          8           0       -2.855598   -2.444315    1.459118
      4          8           0       -1.427536   -1.112886    0.668324
      5          6           0       -1.029504   -0.341596   -0.454098
      6          6           0        0.190474    0.513091   -0.027344
      7          8           0        0.336568    1.703900   -0.778917
[...]
 0.00033421,0.00121598,-0.00090547,-0.00017379,0.00178539,-0.00084213,0
 .33467821,-0.00272411,0.00008264,0.00009242,0.00649894,0.00061368,-0.0
 0272988,-0.00161624,-0.00081197,0.00155740,-0.00567590,-0.00279408,-0.
 00404199,0.00586158,-0.00304785,-0.02365632,0.01172688,-0.09461702,-0.
 05594747,-0.00194353,0.00455492,0.04815221,-0.00092028,-0.00942850,-0.
 00321136,0.00010892,-0.00021388,0.00266282,-0.00001200,0.00419783,0.00
 233399,0.00781241,-0.00742045,-0.03024384,0.00167068,-0.00103116,-0.00
 093279,-0.00180140,0.00248035,-0.00115972,0.00099337,-0.00070471,0.000
 47965,0.00036190,-0.00104128,0.00047837,-0.17103378,0.31198457,-0.0009
 2638,-0.00029331,0.00134228,0.00260656,0.00038523,-0.00300087,-0.00123
 532,-0.00084465,0.00195169,-0.00015306,0.00236718,0.00358206,0.0092797
 2,-0.00852966,-0.03564641,-0.03319940,-0.03802518,-0.23075628,0.006396
 49,0.01671783,-0.07977030,0.00484554,0.00412264,0.01682488,-0.00100541
 ,0.00700500,-0.00820098,-0.00018326,-0.00150084,-0.00359344,0.00842808
 ,-0.00843639,-0.01527194,0.00149804,-0.00132471,0.00114063,-0.00158007
 ,0.00196383,-0.00112621,0.00041306,-0.00054311,0.00043961,0.00033800,-
 0.00121385,0.00067197,-0.01669305,0.11574522,0.43764959,-0.00055129,0.
 00037260,0.00027703,0.00004239,-0.00315698,-0.00276717,-0.00061543,0.0
 0017167,0.00124834,-0.00265543,0.00161911,0.00229082,0.00562003,-0.000
 29187,-0.00365510,-0.00437826,0.00146640,0.03239274,-0.00366067,0.0050
 1566,-0.00606428,0.00224896,-0.00113299,0.00520735,-0.00048732,0.00196
 836,-0.00231022,-0.00044344,-0.00092825,-0.00222537,0.00155359,0.00053
 451,-0.00144744,0.00071208,-0.00125048,-0.00019832,-0.00130026,0.00219
 992,-0.00068813,0.00044355,-0.00057711,0.00017037,0.00020703,-0.001058
 47,0.00040879,-0.18890568,0.11193679,0.00902841,0.52792206,0.00247426,
 -0.00160012,0.00120063,-0.00692286,0.00080391,-0.00177239,0.00113306,0
 .00020729,0.00001523,0.00191254,0.00152379,0.00153252,-0.00048669,-0.0
 0088868,-0.00160490,0.02698986,-0.01456771,-0.00647016,-0.00160909,-0.
 00005289,0.00233283,-0.00125789,0.00152334,0.00114285,0.00034904,-0.00
 037885,-0.00025432,-0.00000695,-0.00033915,-0.00008777,-0.00297545,0.0
 0123421,-0.00467351,-0.00006904,0.00026323,0.00012071,-0.00007645,0.00
 043751,-0.00032599,0.00009090,-0.00020040,0.00019543,0.00000507,-0.000
 24516,0.00014039,0.10665107,-0.17577491,-0.08487916,0.08420636,0.84068
 409,0.00117615,-0.00079146,0.00056408,-0.00309580,0.00008798,-0.000934
 88,0.00042841,0.00006030,0.00014775,0.00082020,0.00078514,0.00024541,-
 0.00046719,-0.00091948,0.00078951,0.05308368,-0.03000489,-0.00429358,0
 .00347769,-0.00282429,-0.00158941,0.00020820,-0.00135044,0.00002374,0.
 00017331,-0.00049398,0.00065300,-0.00028524,0.00016705,-0.00009711,-0.
 00075501,-0.00164950,-0.01112842,-0.00034958,0.00027177,0.00059432,0.0
 0054176,0.00006265,-0.00029072,-0.00017494,-0.00025608,0.00031098,-0.0
 0004998,-0.00022589,0.00013836,-0.01406831,-0.04371732,-0.09361245,0.1
 3768980,0.46033317,0.36756042,0.00130881,-0.00145497,-0.00001707,-0.00
 378519,0.00155398,0.00138449,0.00102963,-0.00009609,-0.00127414,0.0020
 0924,0.00199635,-0.00003629,-0.00169181,0.00097074,0.00343454,-0.00159
 990,-0.00038145,-0.00489634,0.00130105,-0.00093794,0.00121164,-0.00047
 493,-0.00001039,-0.00114162,0.00017758,-0.00024478,0.00051436,0.000143
 48,0.00021449,0.00049740,0.00008699,-0.00034099,0.00185749,-0.00023209
 ,0.00054092,0.00000337,0.00039233,-0.00121176,0.00036796,-0.00001722,0
 .00033283,-0.00013403,-0.00004645,0.00060879,-0.00024903,-0.03356103,0
 .00535050,-0.00480937,-0.24595637,-0.06343797,-0.08495855,0.31585958,-
 0.00143890,-0.00027465,-0.00078299,0.00677155,0.00343528,0.00202752,-0
 .00064399,-0.00069580,-0.00074025,0.00118955,-0.00817622,-0.00548853,-
 0.00236017,-0.00229591,-0.00032612,-0.00609467,-0.00052905,-0.00078891
 ,0.00049170,0.00093090,-0.00052057,0.00010851,-0.00330359,0.00009046,-
 0.00020049,0.00159783,-0.00036007,0.00028746,0.00154902,0.00033328,-0.
 00001963,0.00018701,0.00110757,0.00053343,-0.00015322,0.00008521,-0.00
 106072,0.00032369,0.00006717,0.00052718,0.00002811,-0.00015430,0.00024
 544,-0.00004376,-0.00000462,0.02358359,0.02445652,0.01677239,-0.065447
 92,-0.08906453,-0.05493738,0.06964829,0.08424961,-0.00023319,-0.001349
 16,0.00132151,0.00315074,0.00325135,-0.00492475,-0.00121345,-0.0008812
 3,0.00259730,-0.00113289,-0.00207905,0.00061718,-0.00118204,-0.0017132
 7,-0.00698151,-0.00666795,0.00335344,-0.00302923,0.00222016,0.00020764
 ,-0.00011777,-0.00136688,-0.00119224,0.00154426,0.00021518,0.00057770,
 -0.00027543,0.00045029,0.00053744,-0.00004258,-0.00016067,0.00067011,0
 .00154404,0.00060312,-0.00040858,0.00030576,-0.00073492,0.00056628,-0.
 00025562,0.00027376,-0.00009166,0.00000341,0.00016223,-0.00027199,0.00
 016898,0.00725140,0.00644803,0.01416560,-0.08608234,-0.05701029,-0.063
 31341,0.09739722,0.05425127,0.06057478,0.00064904,-0.00005118,0.000228
 45,-0.00189514,-0.00041599,-0.00011949,0.00040366,0.00033584,-0.000138
 25,0.00086600,0.00069173,0.00008719,-0.00061313,-0.00074650,-0.0000812
 7,-0.00450657,0.00375360,-0.01038953,-0.00106043,-0.00070918,0.0033241
 6,0.00014085,0.00153403,-0.00225777,-0.00019019,-0.00146707,0.00096321
 ,0.00002959,-0.00070530,0.00020286,0.00139529,-0.00006721,0.00375094,-
 0.00087588,0.00035258,-0.00023943,0.00152649,-0.00100478,0.00042153,-0
 .00077022,0.00019964,-0.00009188,-0.00033533,0.00051027,-0.00023032,-0
 .00549593,0.04106409,0.03172788,-0.12436344,-0.12169210,-0.08960056,-0
 .02658925,-0.03271721,-0.01590083,0.28966329,0.00144200,0.00151168,0.0
 0008161,-0.00588750,-0.00553631,0.00063894,0.00154505,0.00164314,-0.00
 087726,0.00250376,0.00262399,0.00097970,-0.00039960,-0.00237711,0.0000
 1412,0.00160112,-0.00493633,-0.01409030,-0.00307410,-0.00235093,0.0104
 0232,0.00018895,0.00880086,-0.01038965,-0.00005688,-0.00590818,0.00358
 983,-0.00012994,-0.00234908,0.00213560,0.00226245,-0.00150097,0.003692
 56,-0.00286603,0.00233284,-0.00044777,0.00489272,-0.00383374,0.0008034
 9,-0.00211632,0.00074896,0.00001062,-0.00107495,0.00179659,-0.00065956
 ,0.00399840,-0.04393085,-0.00345551,-0.13845390,-0.51533007,-0.3107026
 1,0.02238510,-0.00624272,0.01664681,0.32104145,1.47093087,0.00076370,0
 .00112731,-0.00051858,-0.00398771,-0.00392774,0.00183247,0.00119174,0.
 00126756,-0.00136689,0.00207853,0.00189323,-0.00009928,-0.00043342,-0.
 00148655,0.00023469,0.00367176,-0.00943913,-0.01046045,-0.00139202,-0.
 00237680,0.00655760,0.00050535,0.00289278,-0.00903916,-0.00027490,-0.0
 0243629,0.00263351,-0.00010960,0.00042485,0.00272832,0.00156164,-0.001
 27366,0.00115670,-0.00218880,0.00202647,-0.00055693,0.00316053,-0.0028
 4820,0.00097311,-0.00126972,0.00060127,-0.00013584,-0.00069278,0.00145
 691,-0.00067607,-0.00992989,-0.00156082,-0.00751510,-0.09326144,-0.292
 94285,-0.19657936,0.01881528,-0.00427676,-0.00094068,0.21142612,0.8217
 9857,0.57157994,-0.00025469,-0.00015756,-0.00001422,0.00094056,0.00065
 713,-0.00014460,-0.00023644,-0.00025933,0.00017027,-0.00045182,-0.0004
 1224,-0.00008498,0.00024078,0.00039335,-0.00012370,0.00047109,-0.00044
 122,0.00534024,0.00045119,0.00077433,-0.00169273,-0.00012043,-0.001209
 86,0.00151487,0.00008452,0.00094910,-0.00060219,0.00002379,0.00038654,
 -0.00025254,-0.00066531,0.00019584,-0.00135151,0.00052961,-0.00031359,
 0.00012381,-0.00091175,0.00061463,-0.00021095,0.00043336,-0.00011360,0
 .00002978,0.00020009,-0.00030086,0.00013238,0.00120856,-0.00500008,-0.
 00675893,0.03676500,-0.02701764,-0.00518070,-0.00762038,0.00330395,-0.
 00299246,-0.12684894,-0.20689516,-0.12926304,0.09543250,-0.00076611,-0
 .00112238,0.00015792,0.00361099,0.00393263,-0.00089744,-0.00099429,-0.
 00112631,0.00079979,-0.00164305,-0.00175405,-0.00056343,0.00001011,0.0
 0154940,-0.00007374,-0.00027413,0.00157099,0.01299994,0.00136401,0.002
 30877,-0.00595786,-0.00024549,-0.00509277,0.00610369,0.00006646,0.0035
 9793,-0.00224529,0.00012516,0.00149278,-0.00114718,-0.00142245,0.00102
 765,-0.00291180,0.00183295,-0.00149018,0.00033152,-0.00313000,0.002564
 86,-0.00064959,0.00135620,-0.00052377,0.00003590,0.00068337,-0.0012108
 7,0.00047990,0.00853620,-0.00269913,-0.01283517,0.00407039,-0.04893337
 ,-0.01405006,-0.03845243,-0.00291282,-0.01693350,-0.21086061,-0.898282
 25,-0.51189343,0.23532258,0.94863717,-0.00046485,-0.00073190,0.0001835
 2,0.00231833,0.00260873,-0.00072778,-0.00065059,-0.00076153,0.00060039
 ,-0.00111041,-0.00111496,-0.00022060,0.00010171,0.00088886,-0.00016365
 ,-0.00227199,0.00260264,0.00883112,0.00068400,0.00166310,-0.00394130,-
 0.00025111,-0.00220914,0.00404418,0.00008389,0.00185560,-0.00145750,0.
 00009877,0.00048138,-0.00091425,-0.00093658,0.00079050,-0.00115475,0.0
 0126981,-0.00107911,0.00023542,-0.00206679,0.00175469,-0.00052419,0.00
 087547,-0.00035325,0.00004513,0.00044606,-0.00084046,0.00036402,0.0101
 7030,-0.00996529,0.00083877,0.01264690,-0.01875802,-0.00005514,-0.0296
 6565,-0.00572233,-0.00338531,-0.13274009,-0.51810316,-0.35875689,0.141
 08440,0.54785786,0.35539914,-0.00722430,-0.00403842,0.00217247,0.00296
 287,-0.00035572,0.00080164,-0.00032407,0.00016587,-0.00049920,0.012814
 61,-0.01278094,0.00781508,-0.24937321,0.15129184,-0.07313721,-0.021774
 22,0.01570288,-0.00584719,0.00295693,0.00112105,0.00017804,-0.00119091
 ,-0.00313245,0.00088375,-0.00022718,0.00089231,-0.00020530,0.00070284,
 0.00096332,0.00028452,-0.00133301,-0.00342215,-0.00184273,0.00023454,-
 0.00013615,0.00012085,-0.00001469,-0.00035640,0.00017196,0.00000893,0.
 00020195,-0.00004738,0.00000011,0.00018920,-0.00009223,0.00053006,-0.0
 0110103,-0.00037949,-0.00095239,-0.00060328,-0.00123627,-0.00114699,0.
 00222360,0.00417574,-0.00013673,-0.00024366,-0.00037174,0.00003750,0.0
 0017076,0.00016178,0.26759186,-0.00319571,0.00078303,-0.00300196,0.007
 65881,0.00033778,0.00467435,-0.00073999,0.00067117,-0.00177944,0.01002
 403,-0.01982216,0.01549071,0.14380171,-0.17552167,0.05262491,-0.020717
 74,0.01742619,-0.00542208,0.00150485,0.00153859,-0.00040630,-0.0011086
 6,0.00170497,0.00114631,0.00021139,-0.00073230,0.00013343,-0.00111794,
 -0.00101117,-0.00003439,-0.00245561,-0.00414280,-0.00153131,0.00029777
 ,0.00014019,0.00010211,0.00001754,-0.00075862,0.00025856,-0.00001794,0
 .00037223,-0.00010121,-0.00000580,0.00039661,-0.00017805,0.00152260,-0
 .00082993,-0.00076664,-0.00109948,0.00007317,-0.00006754,0.00162382,-0
 .00188012,-0.00253256,-0.00006620,-0.00045663,-0.00036950,0.00007064,0
 .00026347,0.00018433,-0.15059581,0.18938439,0.00156921,-0.00170687,0.0
 0184702,-0.00606581,0.00099528,0.00024117,0.00054826,-0.00031750,0.000
 23001,-0.01879210,0.02765986,-0.02017143,-0.05839032,0.04742110,-0.084
 50579,-0.01292793,0.00812970,-0.00233206,0.00229940,0.00137176,-0.0004
 7935,0.00075308,0.00061888,0.00216597,-0.00007168,-0.00001642,-0.00033
 162,-0.00007341,-0.00059118,-0.00078108,-0.00058271,-0.00184877,-0.000
 71608,0.00048150,0.00002125,0.00022525,-0.00028067,0.00020060,-0.00009
 381,0.00003334,0.00003254,-0.00000441,0.00001299,-0.00005268,0.0000374
 6,0.00136446,-0.00062586,-0.00063109,-0.00191560,0.00034679,-0.0002531
 7,0.00171390,-0.00075699,-0.00047301,-0.00009160,-0.00163147,-0.000893
 31,0.00017337,0.00107552,0.00063611,0.06914261,-0.06439594,0.09362228,
 -0.00013507,-0.00012523,-0.00184921,0.00431645,0.00196526,0.00338677,-
 0.00149236,-0.00102804,0.00031436,-0.00551261,0.00005217,0.01491843,-0
 .09869674,0.06159211,0.06768753,0.01254074,-0.01602007,-0.02194851,-0.
 00098841,-0.00155371,0.00152439,-0.00040574,-0.00040278,-0.00074182,0.
 00010986,-0.00017428,0.00032954,-0.00141068,-0.00204567,0.00176248,0.0
 0101052,0.00004652,-0.00073668,0.00002550,-0.00008726,0.00007263,-0.00
 032507,0.00042785,-0.00023026,0.00009411,-0.00007707,0.00005157,0.0000
 3799,-0.00014000,0.00006680,-0.00419026,-0.00485116,-0.00658936,-0.001
 87284,0.00077488,0.00040890,0.00021373,0.00119962,0.00194297,0.0002182
 8,0.00019872,0.00014030,-0.00010404,-0.00006364,-0.00007482,-0.0033488
 9,0.01562076,0.02175460,0.10025662,-0.00112201,0.00055148,-0.00095202,
 0.00481561,0.00208272,0.00395685,-0.00172789,-0.00202642,0.00032083,-0
 .01670535,0.01316221,0.03072777,0.06012475,-0.17511497,-0.14471621,0.0
 0990057,-0.00687787,-0.01309374,-0.00161348,-0.00145388,0.00261358,0.0
 0014234,-0.00415971,-0.00424040,-0.00020198,0.00162746,0.00048844,-0.0
 0023844,0.00160939,0.00279858,0.00066471,0.00005677,-0.00010349,0.0002
 5323,0.00009526,0.00026068,-0.00015413,0.00035044,-0.00004025,0.000056
 71,-0.00004035,-0.00000479,-0.00000190,-0.00011087,0.00001514,-0.00285
 093,-0.00187314,-0.00193821,0.00015619,0.00051705,0.00076073,0.0008084
 8,-0.00104321,-0.00200263,0.00031555,0.00116947,0.00068343,-0.00021349
 ,-0.00080452,-0.00050645,0.00325746,-0.00869591,-0.01613303,-0.0551160
 3,0.18078113,0.00167392,-0.00018588,0.00152359,-0.00601811,-0.00158672
 ,-0.00508500,0.00193510,0.00112459,0.00019630,0.01836699,-0.00123383,-
 0.02888468,0.06553108,-0.13873785,-0.22865871,0.00349669,-0.00867303,-
 0.00772827,-0.00107772,-0.00132930,0.00024157,0.00021060,-0.00101765,-
 0.00138189,-0.00004473,0.00030617,0.00025397,0.00207032,0.00507298,-0.
 00229587,0.00062591,-0.00015809,0.00032580,0.00057010,0.00011960,0.000
 32976,-0.00098834,0.00077096,-0.00018382,0.00031828,-0.00009030,-0.000
 07918,0.00014467,-0.00024366,0.00012651,-0.00132666,-0.00127100,-0.000
 96338,-0.00044812,0.00033354,0.00006328,-0.00009825,0.00016190,0.00099
 929,0.00005506,0.00006589,0.00000204,-0.00002433,-0.00000555,-0.000013
 87,-0.00227929,0.00584950,0.01233415,-0.08246830,0.14067110,0.25832288
 ,0.00001707,0.00002024,-0.00009627,-0.00023298,0.00000982,0.00017944,0
 .00013665,0.00009536,-0.00018807,0.00060149,0.00015804,-0.00040664,0.0
 0090663,0.00033156,0.00081975,-0.00531219,0.00286593,0.03341656,0.0022
 1317,-0.00155986,-0.00169799,-0.00034597,0.00481197,0.00170993,-0.0001
 9814,-0.00174801,-0.00010851,0.00001102,-0.00171088,-0.00169640,-0.086
 94769,0.01023775,0.07333704,0.00054709,-0.00045152,0.00286993,0.002207
 22,-0.00020183,-0.00156938,-0.00145959,0.00085743,-0.00064959,-0.00024
 752,0.00025101,0.00015448,-0.00664852,0.00446982,0.00059062,0.00082135
 ,0.00118388,0.00227501,-0.00032818,-0.00027046,-0.00050390,-0.00106025
 ,-0.00112270,-0.00033964,0.00038945,0.00083897,0.00038264,0.00002068,-
 0.00011931,-0.00025196,-0.00061266,-0.00057071,-0.00042127,0.08576531,
 -0.00005549,0.00004614,-0.00008171,0.00003791,-0.00013625,0.00014851,-
 0.00001662,0.00005162,-0.00004387,-0.00016822,0.00008510,0.00002094,-0
 .00041772,-0.00042037,0.00054514,0.00006189,0.00023227,-0.01513218,-0.
 00117970,0.00034038,0.00076266,0.00146772,-0.00329351,-0.00159758,0.00
 001296,0.00075458,0.00024868,-0.00007724,0.00104397,0.00164235,0.01538
 498,-0.07258912,-0.05948926,-0.00959494,-0.00954893,0.04804894,-0.0064
 8317,0.00463521,0.00238152,0.00318940,-0.00100484,-0.00040459,0.000713
 71,-0.00161768,-0.00074853,0.00453667,-0.00266968,-0.00104253,-0.00039
 442,-0.00011707,-0.00097862,0.00054643,0.00003936,0.00021682,0.0005194
 3,0.00105337,0.00040800,-0.00023486,-0.00072397,-0.00036137,0.00002104
 ,0.00005206,0.00000950,-0.00012290,0.00025540,0.00019185,-0.01486737,0
 .08303126,-0.00004138,-0.00003080,0.00003064,0.00024817,0.00010445,-0.
 00007381,-0.00008908,-0.00007917,0.00010683,-0.00023041,-0.00007475,0.
 00014622,0.00028165,-0.00008579,-0.00012631,0.00014796,-0.00161096,0.0
 0101420,0.00036302,-0.00064595,0.00040734,-0.00003700,-0.00032907,0.00
 042375,0.00006073,-0.00005028,0.00001561,-0.00287955,0.00267115,-0.003
 11004,0.07508435,-0.05128284,-0.34419029,0.00318422,0.01162451,-0.0147
 3246,0.00626348,-0.00009384,-0.00264363,-0.00172491,-0.00179090,0.0026
 0794,-0.00127510,-0.00049697,0.00064646,-0.00060532,0.00056963,0.00079
 729,-0.00034952,0.00075351,0.00078247,0.00007229,-0.00000945,-0.000026
 90,-0.00027901,-0.00027986,-0.00014457,0.00010761,0.00019784,0.0000951
 0,0.00001524,0.00005408,0.00011989,0.00008217,0.00017710,0.00031943,-0
 .08341629,0.04407689,0.36914032,-0.00026997,-0.00020078,0.00024923,0.0
 0059254,0.00013816,-0.00064301,-0.00028114,-0.00020651,0.00042588,-0.0
 0061423,-0.00021715,0.00027998,-0.00322663,0.00496987,0.00060392,-0.02
 576518,-0.02088194,-0.01717544,0.00228876,-0.00016480,0.00147056,0.000
 11661,-0.00003015,-0.00056710,-0.00006619,-0.00005045,0.00007436,0.000
 23650,0.00002844,0.00033046,-0.19932376,-0.11593407,-0.09756414,0.0021
 8334,-0.00076397,0.00269454,0.00094532,-0.00052796,0.00102346,-0.00054
 297,0.00249838,0.00007425,0.00000556,0.00053537,-0.00077150,0.00270978
 ,-0.00117638,-0.00163930,-0.00019321,0.00038449,-0.00006098,0.00052738
 ,0.00014030,0.00032870,-0.00015107,0.00026102,0.00019973,0.00000580,-0
 .00013595,-0.00009120,-0.00081434,-0.00111375,-0.00040292,0.00027159,0
 .00002075,0.00019641,0.00975654,0.00712051,0.00501668,0.21160898,0.000
 08467,0.00016887,-0.00023249,-0.00022492,-0.00013089,0.00041079,0.0001
 5693,0.00016949,-0.00028052,0.00031313,0.00026708,-0.00009832,0.002513
 79,-0.00283251,-0.00014081,0.01281325,0.01132330,0.00817709,-0.0001366
 9,0.00133761,-0.00027185,-0.00003969,0.00046359,-0.00019422,0.00006126
 ,-0.00013801,0.00008977,-0.00018646,-0.00013686,0.00001914,-0.11225507
 ,-0.15666703,-0.08394279,-0.02057959,-0.03798638,-0.00538026,-0.011091
 26,0.00155687,-0.00000156,0.00410121,0.00108309,-0.00097521,0.00204780
 ,-0.00039225,0.00049439,-0.00001893,0.00051804,0.00054960,0.00007392,0
 .00022533,0.00044076,-0.00001195,-0.00018173,-0.00026071,0.00018510,0.
 00042339,0.00025136,-0.00009861,-0.00026928,-0.00018070,0.00056474,0.0
 0070747,0.00019392,-0.00007005,-0.00005794,-0.00013522,-0.00350913,0.0
 0050071,-0.00336853,0.12530656,0.18004803,-0.00001327,-0.00002552,0.00
 004191,0.00020281,0.00010121,-0.00005745,-0.00008554,-0.00008961,0.000
 10289,-0.00038452,-0.00009871,0.00015405,0.00045250,-0.00012252,-0.000
 24749,0.00441607,0.00028831,0.00131722,0.00014400,0.00008578,0.0000341
 8,-0.00052502,-0.00171501,-0.00132594,0.00012028,0.00079279,-0.0000048
 9,-0.00049284,0.00143809,0.00004271,-0.10446967,-0.08969318,-0.1415272
 4,0.01703232,0.02197970,0.01144573,0.00128056,-0.00222415,0.00198932,-
 0.00066510,0.00154400,-0.00016517,-0.00023596,0.00064894,-0.00118395,0
 .00139995,0.00054390,0.00068408,0.00005249,0.00033177,0.00027432,0.000
 01039,-0.00002752,-0.00007592,-0.00002739,-0.00022290,-0.00001528,0.00
 002018,0.00012417,0.00004232,0.00001435,0.00006864,0.00020690,0.000195
 50,0.00025700,0.00023610,-0.02438951,-0.01882156,-0.01160550,0.1059474
 2,0.08483636,0.13963708||-0.00001220,-0.00001570,-0.00000186,-0.000002
 84,-0.00000528,-0.00000586,-0.00000739,-0.00000145,0.00000475,0.000002
 18,0.00000551,-0.00000771,0.00000666,0.00002301,0.00001633,0.00000928,
 -0.00000534,-0.00001266,-0.00002334,0.00000613,-0.00000194,0.00001599,
 -0.00000596,-0.00000139,-0.00000368,0.00001630,0.00000188,-0.00000560,
 -0.00001229,0.00000504,0.00000304,-0.00000250,0.00000643,0.00000301,-0
 .00000028,0.00000021,-0.00000557,-0.00000480,-0.00000577,0.00000186,0.
 00000959,-0.00000122,0.00000115,-0.00000585,0.00000701,0.00000162,-0.0
 0000173,0.00000599,-0.00002496,0.00001814,-0.00000043,0.00003359,0.000
 00104,0.00000191,0.00001048,-0.00002033,-0.00000962,-0.00000327,-0.000
 00102,-0.00000266,-0.00000434,0.00000543,0.00000003,0.00000332,-0.0000
 0065,0.00000326,0.00000089,-0.00000164,-0.00000192,0.00000012,-0.00000
 034,0.00000021|||@
 The archive entry for this job was punched.


    WHAT WE HAVE LEARNED
 IS LIKE A HANDFUL OF EARTH;
  WHAT WE HAVE YET TO LEARN
   IS LIKE THE WHOLE WORLD.

         -- AVVAYIAR
 Job cpu time:       0 days  0 hours  1 minutes 44.0 seconds.
 Elapsed time:       0 days  0 hours  1 minutes 41.6 seconds.
 File lengths (MBytes):  RWF=    286 Int=      0 D2E=      0 Chk=      9 Scr=      1
 Normal termination of Gaussian 16 at Tue Jun 11 17:52:10 2024.
