 Entering Link 1 = C:\G16W\l1.exe PID=     18152.
  
 Copyright (c) 1988-2019, Gaussian, Inc.  All Rights Reserved.
  
 This is part of the Gaussian(R) 16 program.  It is based on
 the Gaussian(R) 09 system (copyright 2009, Gaussian, Inc.),
 the Gaussian(R) 03 system (copyright 2003, Gaussian, Inc.),
 the Gaussian(R) 98 system (copyright 1998, Gaussian, Inc.),
 the Gaussian(R) 94 system (copyright 1995, Gaussian, Inc.),
 the Gaussian 92(TM) system (copyright 1992, Gaussian, Inc.),
 the Gaussian 90(TM) system (copyright 1990, Gaussian, Inc.),
 the Gaussian 88(TM) system (copyright 1988, Gaussian, Inc.),
 the Gaussian 86(TM) system (copyright 1986, Carnegie Mellon
 University), and the Gaussian 82(TM) system (copyright 1983,
 Carnegie Mellon University). Gaussian is a federally registered
 trademark of Gaussian, Inc.
  
 This software contains proprietary and confidential information,
 including trade secrets, belonging to Gaussian, Inc.
  
 This software is provided under written license and may be
 used, copied, transmitted, or stored only in accord with that
 written license.
  
 The following legend is applicable only to US Government
 contracts under FAR:
  
                    RESTRICTED RIGHTS LEGEND
  
 Use, reproduction and disclosure by the US Government is
 subject to restrictions as set forth in subparagraphs (a)
 and (c) of the Commercial Computer Software - Restricted
 Rights clause in FAR 52.227-19.
  
 Gaussian, Inc.
 340 Quinnipiac St., Bldg. 40, Wallingford CT 06492
  
  
 ---------------------------------------------------------------
 Warning -- This program may not be used in any manner that
 competes with the business of Gaussian, Inc. or will provide
 assistance to any competitor of Gaussian, Inc.  The licensee
 of this program is prohibited from giving any competitor of
 Gaussian, Inc. access to this program.  By using this program,
 the user acknowledges that Gaussian, Inc. is engaged in the
 business of creating and licensing software in the field of
 computational chemistry and represents and warrants to the
 licensee that it is not a competitor of Gaussian, Inc. and that
 it will not use this program in any manner prohibited above.
 ---------------------------------------------------------------
  

 Cite this work as:
 Gaussian 16, Revision C.01,
 M. J. Frisch, G. W. Trucks, H. B. Schlegel, G. E. Scuseria, 
 M. A. Robb, J. R. Cheeseman, G. Scalmani, V. Barone, 
 G. A. Petersson, H. Nakatsuji, X. Li, M. Caricato, A. V. Marenich, 
 J. Bloino, B. G. Janesko, R. Gomperts, B. Mennucci, H. P. Hratchian, 
 J. V. Ortiz, A. F. Izmaylov, J. L. Sonnenberg, D. Williams-Young, 
 F. Ding, F. Lipparini, F. Egidi, J. Goings, B. Peng, A. Petrone, 
 T. Henderson, D. Ranasinghe, V. G. Zakrzewski, J. Gao, N. Rega, 
 G. Zheng, W. Liang, M. Hada, M. Ehara, K. Toyota, R. Fukuda, 
 J. Hasegawa, M. Ishida, T. Nakajima, Y. Honda, O. Kitao, H. Nakai, 
 T. Vreven, K. Throssell, J. A. Montgomery, Jr., J. E. Peralta, 
 F. Ogliaro, M. J. Bearpark, J. J. Heyd, E. N. Brothers, K. N. Kudin, 
 V. N. Staroverov, T. A. Keith, R. Kobayashi, J. Normand, 
 K. Raghavachari, A. P. Rendell, J. C. Burant, S. S. Iyengar, 
 J. Tomasi, M. Cossi, J. M. Millam, M. Klene, C. Adamo, R. Cammi, 
 J. W. Ochterski, R. L. Martin, K. Morokuma, O. Farkas, 
 J. B. Foresman, and D. J. Fox, Gaussian, Inc., Wallingford CT, 2019.
 
 ******************************************
 Gaussian 16:  EM64W-G16RevC.01 30-May-2019
                11-Jun-2024 
 ******************************************
 %nprocshared=24
 Will use up to   24 processors via shared memory.
 %mem=120GB
 ----------------------
 # HF/6-31G(d) Opt Freq
 ----------------------
 1/18=20,19=15,38=1/1,3;
 2/9=110,12=2,17=6,18=5,40=1/2;
 3/5=1,6=6,7=1,11=9,25=1,30=1,71=1/1,2,3;
 4//1;
 5/5=2,38=5/2;
 6/7=2,8=2,9=2,10=2,28=1/1;
 7//1,2,3,16;
 1/18=20,19=15/3(2);
 2/9=110/2;
 99//99;
 2/9=110/2;
 3/5=1,6=6,7=1,11=9,25=1,30=1,71=1/1,2,3;
 4/5=5,16=3,69=1/1;
 5/5=2,38=5/2;
 7//1,2,3,16;
 1/18=20,19=15/3(-5);
 2/9=110/2;
 6/7=2,8=2,9=2,10=2,19=2,28=1/1;
 99/9=1/99;
 ----------------------------------------------------------------------
 O=[N+1]([O-1])OC(C(O[N+1]([O-1])=O)O[N+1]([O-1])=O)O[N+1]([O-1])=O geo
 metry optimization
 ----------------------------------------------------------------------
 Symbolic Z-matrix:
 Charge =  0 Multiplicity = 1
 O                    -2.21519   1.72531  -0.49093 
 N                    -2.35208   0.65125  -1.07309 
 O                    -3.08671   0.34385  -2.00631 
 O                    -1.5167   -0.41269  -0.6681 
 C                    -0.67252  -0.09528   0.44148 
 C                     0.73772   0.32189  -0.09177 
 O                     1.2044   -0.6727   -1.00695 
 N                     2.07276  -1.62201  -0.42505 
 O                     2.48199  -2.44551  -1.23712 
 O                     2.27005  -1.53464   0.78519 
 O                     0.58194   1.57413  -0.77133 
 N                     1.81515   2.20698  -1.03167 
 O                     2.8311    1.61384  -0.67232 
 O                     1.68444   3.28926  -1.59378 
 O                    -0.49038  -1.25592   1.26241 
 N                    -1.62627  -1.55053   2.04474 
 O                    -1.46612  -2.53053   2.7647 
 O                    -2.60007  -0.8109    1.91146 
 H                    -1.03576   0.7264    1.0741 
 H                     1.38226   0.47783   0.78434 
 

 GradGradGradGradGradGradGradGradGradGradGradGradGradGradGradGradGradGrad
 Berny optimization.
 Initialization pass.
                           ----------------------------
                           !    Initial Parameters    !
                           ! (Angstroms and Degrees)  !
 --------------------------                            --------------------------
 ! Name  Definition              Value          Derivative Info.                !
 --------------------------------------------------------------------------------
 ! R1    R(1,2)                  1.2293         estimate D2E/DX2                !
 ! R2    R(2,3)                  1.2268         estimate D2E/DX2                !
 ! R3    R(2,4)                  1.412          estimate D2E/DX2                !
 ! R4    R(4,5)                  1.4299         estimate D2E/DX2                !
 ! R5    R(5,6)                  1.5643         estimate D2E/DX2                !
 ! R6    R(5,15)                 1.4332         estimate D2E/DX2                !
 ! R7    R(5,19)                 1.0988         estimate D2E/DX2                !
 ! R8    R(6,7)                  1.4299         estimate D2E/DX2                !
 ! R9    R(6,11)                 1.4332         estimate D2E/DX2                !
 ! R10   R(6,20)                 1.0988         estimate D2E/DX2                !
 ! R11   R(7,8)                  1.412          estimate D2E/DX2                !
 ! R12   R(8,9)                  1.2268         estimate D2E/DX2                !
 ! R13   R(8,10)                 1.2293         estimate D2E/DX2                !
 ! R14   R(11,12)                1.4104         estimate D2E/DX2                !
 ! R15   R(12,13)                1.2301         estimate D2E/DX2                !
 ! R16   R(12,14)                1.2265         estimate D2E/DX2                !
 ! R17   R(15,16)                1.4104         estimate D2E/DX2                !
 ! R18   R(16,17)                1.2265         estimate D2E/DX2                !
 ! R19   R(16,18)                1.2301         estimate D2E/DX2                !
 ! A1    A(1,2,3)              130.2278         estimate D2E/DX2                !
 ! A2    A(1,2,4)              117.1687         estimate D2E/DX2                !
 ! A3    A(3,2,4)              112.5593         estimate D2E/DX2                !
 ! A4    A(2,4,5)              113.8652         estimate D2E/DX2                !
 ! A5    A(4,5,6)              109.0813         estimate D2E/DX2                !
 ! A6    A(4,5,15)             109.8608         estimate D2E/DX2                !
 ! A7    A(4,5,19)             114.6834         estimate D2E/DX2                !
 ! A8    A(6,5,15)             107.2558         estimate D2E/DX2                !
 ! A9    A(6,5,19)             107.1489         estimate D2E/DX2                !
 ! A10   A(15,5,19)            108.531          estimate D2E/DX2                !
 ! A11   A(5,6,7)              109.0813         estimate D2E/DX2                !
 ! A12   A(5,6,11)             107.2558         estimate D2E/DX2                !
 ! A13   A(5,6,20)             107.1489         estimate D2E/DX2                !
 ! A14   A(7,6,11)             109.8608         estimate D2E/DX2                !
 ! A15   A(7,6,20)             114.6834         estimate D2E/DX2                !
 ! A16   A(11,6,20)            108.531          estimate D2E/DX2                !
 ! A17   A(6,7,8)              113.8652         estimate D2E/DX2                !
 ! A18   A(7,8,9)              112.5593         estimate D2E/DX2                !
 ! A19   A(7,8,10)             117.1687         estimate D2E/DX2                !
 ! A20   A(9,8,10)             130.2278         estimate D2E/DX2                !
 ! A21   A(6,11,12)            112.6148         estimate D2E/DX2                !
 ! A22   A(11,12,13)           116.865          estimate D2E/DX2                !
 ! A23   A(11,12,14)           112.7899         estimate D2E/DX2                !
 ! A24   A(13,12,14)           130.345          estimate D2E/DX2                !
 ! A25   A(5,15,16)            112.6148         estimate D2E/DX2                !
 ! A26   A(15,16,17)           112.7899         estimate D2E/DX2                !
 ! A27   A(15,16,18)           116.8651         estimate D2E/DX2                !
 ! A28   A(17,16,18)           130.3449         estimate D2E/DX2                !
 ! D1    D(1,2,3,4)            177.4721         estimate D2E/DX2                !
 ! D2    D(1,2,4,5)              3.7003         estimate D2E/DX2                !
 ! D3    D(3,2,4,5)           -178.4689         estimate D2E/DX2                !
 ! D4    D(2,4,5,6)            -96.8025         estimate D2E/DX2                !
 ! D5    D(2,4,5,15)           145.8952         estimate D2E/DX2                !
 ! D6    D(2,4,5,19)            23.3534         estimate D2E/DX2                !
 ! D7    D(4,5,6,7)            -50.7362         estimate D2E/DX2                !
 ! D8    D(4,5,6,11)            68.2028         estimate D2E/DX2                !
 ! D9    D(4,5,6,20)          -175.4295         estimate D2E/DX2                !
 ! D10   D(15,5,6,7)            68.2028         estimate D2E/DX2                !
 ! D11   D(15,5,6,11)         -172.8582         estimate D2E/DX2                !
 ! D12   D(15,5,6,20)          -56.4905         estimate D2E/DX2                !
 ! D13   D(19,5,6,7)          -175.4295         estimate D2E/DX2                !
 ! D14   D(19,5,6,11)          -56.4905         estimate D2E/DX2                !
 ! D15   D(19,5,6,20)           59.8772         estimate D2E/DX2                !
 ! D16   D(4,5,15,16)          -75.1811         estimate D2E/DX2                !
 ! D17   D(6,5,15,16)          166.3835         estimate D2E/DX2                !
 ! D18   D(19,5,15,16)          50.9315         estimate D2E/DX2                !
 ! D19   D(5,6,7,8)            -96.8025         estimate D2E/DX2                !
 ! D20   D(11,6,7,8)           145.8952         estimate D2E/DX2                !
 ! D21   D(20,6,7,8)            23.3534         estimate D2E/DX2                !
 ! D22   D(5,6,11,12)          166.3834         estimate D2E/DX2                !
 ! D23   D(7,6,11,12)          -75.1812         estimate D2E/DX2                !
 ! D24   D(20,6,11,12)          50.9314         estimate D2E/DX2                !
 ! D25   D(6,7,8,9)           -178.4689         estimate D2E/DX2                !
 ! D26   D(6,7,8,10)             3.7004         estimate D2E/DX2                !
 ! D27   D(7,8,9,10)          -177.472          estimate D2E/DX2                !
 ! D28   D(6,11,12,13)           1.0209         estimate D2E/DX2                !
 ! D29   D(6,11,12,14)        -178.8862         estimate D2E/DX2                !
 ! D30   D(11,12,13,14)       -179.8875         estimate D2E/DX2                !
 ! D31   D(5,15,16,17)        -178.8863         estimate D2E/DX2                !
 ! D32   D(5,15,16,18)           1.0207         estimate D2E/DX2                !
 ! D33   D(15,16,17,18)        179.8911         estimate D2E/DX2                !
 --------------------------------------------------------------------------------
 Trust Radius=3.00D-01 FncErr=1.00D-07 GrdErr=1.00D-07 EigMax=2.50D+02 EigMin=1.00D-04
 Number of steps in this run=     90 maximum allowed number of steps=    120.
 GradGradGradGradGradGradGradGradGradGradGradGradGradGradGradGradGradGrad

                          Input orientation:                          
 ---------------------------------------------------------------------
 Center     Atomic      Atomic             Coordinates (Angstroms)
 Number     Number       Type             X           Y           Z
 ---------------------------------------------------------------------
      1          8           0       -2.215189    1.725309   -0.490933
      2          7           0       -2.352082    0.651248   -1.073088
      3          8           0       -3.086713    0.343845   -2.006306
      4          8           0       -1.516701   -0.412694   -0.668097
      5          6           0       -0.672517   -0.095283    0.441479
      6          6           0        0.737719    0.321888   -0.091769
      7          8           0        1.204398   -0.672700   -1.006952
      8          7           0        2.072761   -1.622011   -0.425055
      9          8           0        2.481994   -2.445512   -1.237120
     10          8           0        2.270051   -1.534638    0.785190
     11          8           0        0.581937    1.574130   -0.771331
     12          7           0        1.815150    2.206978   -1.031672
     13          8           0        2.831103    1.613836   -0.672320
     14          8           0        1.684435    3.289255   -1.593783
     15          8           0       -0.490379   -1.255924    1.262407
     16          7           0       -1.626269   -1.550532    2.044741
     17          8           0       -1.466124   -2.530526    2.764703
     18          8           0       -2.600072   -0.810899    1.911464
     19          1           0       -1.035759    0.726402    1.074099
     20          1           0        1.382256    0.477828    0.784344
 ---------------------------------------------------------------------
                    Distance matrix (angstroms):
                    1          2          3          4          5
     1  O    0.000000
     2  N    1.229329   0.000000
     3  O    2.228082   1.226815   0.000000
     4  O    2.256175   1.412038   2.197292   0.000000
     5  C    2.561989   2.381630   3.465952   1.429879   0.000000
     6  C    3.293720   3.258578   4.276939   2.440117   1.564338
     7  O    4.208360   3.795492   4.521692   2.754416   2.440118
     8  N    5.440166   5.016661   5.743267   3.795492   3.258578
     9  O    6.325826   5.743267   6.275560   4.521692   4.276939
    10  O    5.689738   5.440166   6.325825   4.208359   3.293719
    11  O    2.815208   3.090507   4.061743   2.891783   2.414851
    12  N    4.094879   4.448351   5.333801   4.253951   3.695818
    13  O    5.050782   5.287021   6.197817   4.796899   4.054256
    14  O    4.343878   4.850121   5.622230   4.980823   4.599198
    15  O    3.864831   3.543696   4.470424   2.343335   1.433242
    16  N    4.184209   3.885293   4.704524   2.943836   2.365976
    17  O    5.410397   5.063324   5.800935   4.033843   3.457975
    18  O    3.514541   3.332705   4.113292   2.826020   2.527534
    19  H    2.199590   2.519676   3.720438   2.136373   1.098781
    20  H    4.015489   4.174375   5.270423   3.362523   2.160580
                    6          7          8          9         10
     6  C    0.000000
     7  O    1.429879   0.000000
     8  N    2.381630   1.412038   0.000000
     9  O    3.465952   2.197292   1.226815   0.000000
    10  O    2.561989   2.256175   1.229329   2.228081   0.000000
    11  O    1.433242   2.343335   3.543696   4.470424   3.864832
    12  N    2.365976   2.943837   3.885294   4.704525   4.184210
    13  O    2.527534   2.826021   3.332706   4.113292   3.514542
    14  O    3.457975   4.033844   5.063325   5.800936   5.410398
    15  O    2.414851   2.891783   3.090507   4.061743   2.815206
    16  N    3.695818   4.253951   4.448351   5.333800   4.094878
    17  O    4.599198   4.980822   4.850120   5.622229   4.343877
    18  O    4.054257   4.796899   5.287021   6.197817   5.050781
    19  H    2.160580   3.362524   4.174375   5.270423   4.015489
    20  H    1.098781   2.136373   2.519676   3.720437   2.199591
                   11         12         13         14         15
    11  O    0.000000
    12  N    1.410350   0.000000
    13  O    2.251694   1.230087   0.000000
    14  O    2.198541   1.226532   2.229568   0.000000
    15  O    3.646252   4.750784   4.796971   5.791916   0.000000
    16  N    4.750784   5.952022   6.104409   6.900954   1.410350
    17  O    5.791917   6.900954   6.888761   7.924159   2.198542
    18  O    4.796971   6.104409   6.484824   6.888761   2.251695
    19  H    2.596382   3.841101   4.334760   4.591870   2.064586
    20  H    2.064586   2.544656   2.347668   3.694716   2.596381
                   16         17         18         19         20
    16  N    0.000000
    17  O    1.226532   0.000000
    18  O    1.230087   2.229568   0.000000
    19  H    2.544657   3.694718   2.347669   0.000000
    20  H    3.841102   4.591872   4.334761   2.447967   0.000000
 Stoichiometry    C2H2N4O12
 Framework group  C1[X(C2H2N4O12)]
 Deg. of freedom    54
 Full point group                 C1      NOp   1
 Largest Abelian subgroup         C1      NOp   1
 Largest concise Abelian subgroup C1      NOp   1
                         Standard orientation:                         
 ---------------------------------------------------------------------
 Center     Atomic      Atomic             Coordinates (Angstroms)
 Number     Number       Type             X           Y           Z
 ---------------------------------------------------------------------
      1          8           0       -0.743056   -2.746115   -0.293018
      2          7           0       -1.077237   -2.265233    0.787873
      3          8           0       -1.381838   -2.817123    1.840351
      4          8           0       -1.077894   -0.857231    0.894554
      5          6           0       -0.760121   -0.184402   -0.326459
      6          6           0        0.760121    0.184401   -0.326459
      7          8           0        1.077894    0.857232    0.894555
      8          7           0        1.077237    2.265234    0.787873
      9          8           0        1.381838    2.817124    1.840350
     10          8           0        0.743055    2.746115   -0.293018
     11          8           0        1.495353   -1.042933   -0.411708
     12          7           0        2.855044   -0.839860   -0.726492
     13          8           0        3.226085    0.324982   -0.862824
     14          8           0        3.482561   -1.889403   -0.821683
     15          8           0       -1.495352    1.042933   -0.411710
     16          7           0       -2.855044    0.839859   -0.726492
     17          8           0       -3.482561    1.889403   -0.821682
     18          8           0       -3.226084   -0.324982   -0.862825
     19          1           0       -0.951435   -0.770004   -1.236288
     20          1           0        0.951437    0.770003   -1.236288
 ---------------------------------------------------------------------
 Rotational constants (GHZ):           0.4759754           0.3583849           0.2500253
 Standard basis: 6-31G(d) (6D, 7F)
 There are   274 symmetry adapted cartesian basis functions of A   symmetry.
 There are   274 symmetry adapted basis functions of A   symmetry.
   274 basis functions,   512 primitive gaussians,   274 cartesian basis functions
    69 alpha electrons       69 beta electrons
       nuclear repulsion energy      1523.0557820935 Hartrees.
 NAtoms=   20 NActive=   20 NUniq=   20 SFac= 1.00D+00 NAtFMM=   60 NAOKFM=F Big=F
 Integral buffers will be    131072 words long.
 Raffenetti 1 integral format.
 Two-electron integral symmetry is turned on.
 One-electron integrals computed using PRISM.
 NBasis=   274 RedAO= T EigKep=  2.03D-03  NBF=   274
 NBsUse=   274 1.00D-06 EigRej= -1.00D+00 NBFU=   274
 ExpMin= 1.61D-01 ExpMax= 5.48D+03 ExpMxC= 8.25D+02 IAcc=3 IRadAn=         5 AccDes= 0.00D+00
 Harris functional with IExCor=  205 and IRadAn=       5 diagonalized for initial guess.
 HarFok:  IExCor=  205 AccDes= 0.00D+00 IRadAn=         5 IDoV= 1 UseB2=F ITyADJ=14
 ICtDFT=  3500011 ScaDFX=  1.000000  1.000000  1.000000  1.000000
 FoFCou: FMM=F IPFlag=           0 FMFlag=      100000 FMFlg1=           0
         NFxFlg=           0 DoJE=T BraDBF=F KetDBF=T FulRan=T
         wScrn=  0.000000 ICntrl=       500 IOpCl=  0 I1Cent=   200000004 NGrid=           0
         NMat0=    1 NMatS0=      1 NMatT0=    0 NMatD0=    1 NMtDS0=    0 NMtDT0=    0
 Petite list used in FoFCou.
 Requested convergence on RMS density matrix=1.00D-08 within 128 cycles.
 Requested convergence on MAX density matrix=1.00D-06.
 Requested convergence on             energy=1.00D-06.
 No special actions if energy rises.
 Integral accuracy reduced to 1.0D-05 until final iterations.
 Initial convergence to 1.0D-05 achieved.  Increase integral accuracy.
 SCF Done:  E(RHF) =  -1192.26232875     A.U. after   16 cycles
            NFock= 16  Conv=0.86D-08     -V/T= 2.0046

 **********************************************************************

            Population analysis using the SCF Density.

 **********************************************************************

 Orbital symmetries:
       Occupied  (A) (A) (A) (A) (A) (A) (A) (A) (A) (A) (A) (A)
                 (A) (A) (A) (A) (A) (A) (A) (A) (A) (A) (A) (A)
                 (A) (A) (A) (A) (A) (A) (A) (A) (A) (A) (A) (A)
                 (A) (A) (A) (A) (A) (A) (A) (A) (A) (A) (A) (A)
                 (A) (A) (A) (A) (A) (A) (A) (A) (A) (A) (A) (A)
                 (A) (A) (A) (A) (A) (A) (A) (A) (A)
       Virtual   (A) (A) (A) (A) (A) (A) (A) (A) (A) (A) (A) (A)
                 (A) (A) (A) (A) (A) (A) (A) (A) (A) (A) (A) (A)
                 (A) (A) (A) (A) (A) (A) (A) (A) (A) (A) (A) (A)
                 (A) (A) (A) (A) (A) (A) (A) (A) (A) (A) (A) (A)
                 (A) (A) (A) (A) (A) (A) (A) (A) (A) (A) (A) (A)
                 (A) (A) (A) (A) (A) (A) (A) (A) (A) (A) (A) (A)
                 (A) (A) (A) (A) (A) (A) (A) (A) (A) (A) (A) (A)
                 (A) (A) (A) (A) (A) (A) (A) (A) (A) (A) (A) (A)
                 (A) (A) (A) (A) (A) (A) (A) (A) (A) (A) (A) (A)
                 (A) (A) (A) (A) (A) (A) (A) (A) (A) (A) (A) (A)
                 (A) (A) (A) (A) (A) (A) (A) (A) (A) (A) (A) (A)
                 (A) (A) (A) (A) (A) (A) (A) (A) (A) (A) (A) (A)
                 (A) (A) (A) (A) (A) (A) (A) (A) (A) (A) (A) (A)
                 (A) (A) (A) (A) (A) (A) (A) (A) (A) (A) (A) (A)
                 (A) (A) (A) (A) (A) (A) (A) (A) (A) (A) (A) (A)
                 (A) (A) (A) (A) (A) (A) (A) (A) (A) (A) (A) (A)
                 (A) (A) (A) (A) (A) (A) (A) (A) (A) (A) (A) (A)
                 (A)
 The electronic state is 1-A.
 Alpha  occ. eigenvalues --  -20.75135 -20.75135 -20.74054 -20.74053 -20.69122
 Alpha  occ. eigenvalues --  -20.69122 -20.69113 -20.69113 -20.68402 -20.68402
 Alpha  occ. eigenvalues --  -20.68370 -20.68370 -15.98616 -15.98616 -15.98031
 Alpha  occ. eigenvalues --  -15.98031 -11.46856 -11.46803  -1.70869  -1.70615
 Alpha  occ. eigenvalues --   -1.69640  -1.69625  -1.53194  -1.50963  -1.48174
 Alpha  occ. eigenvalues --   -1.48173  -1.47535  -1.47493  -1.46678  -1.46610
 Alpha  occ. eigenvalues --   -1.14881  -1.05460  -0.99244  -0.99083  -0.94078
 Alpha  occ. eigenvalues --   -0.89663  -0.87193  -0.86818  -0.85874  -0.84976
 Alpha  occ. eigenvalues --   -0.83260  -0.81582  -0.81191  -0.80750  -0.80467
 Alpha  occ. eigenvalues --   -0.80200  -0.79507  -0.78453  -0.73829  -0.71358
 Alpha  occ. eigenvalues --   -0.70622  -0.67699  -0.66721  -0.61922  -0.61257
 Alpha  occ. eigenvalues --   -0.60259  -0.58935  -0.58523  -0.57289  -0.57005
 Alpha  occ. eigenvalues --   -0.56985  -0.56103  -0.55700  -0.55533  -0.53966
 Alpha  occ. eigenvalues --   -0.52039  -0.51918  -0.51346  -0.51234
 Alpha virt. eigenvalues --    0.04172   0.04280   0.05002   0.05074   0.13479
 Alpha virt. eigenvalues --    0.17062   0.20326   0.21696   0.23992   0.26141
 Alpha virt. eigenvalues --    0.27646   0.27893   0.35811   0.37027   0.39911
 Alpha virt. eigenvalues --    0.41931   0.43133   0.43239   0.43777   0.53476
 Alpha virt. eigenvalues --    0.54390   0.54858   0.58948   0.67000   0.69237
 Alpha virt. eigenvalues --    0.70019   0.70165   0.73145   0.73574   0.75315
 Alpha virt. eigenvalues --    0.79171   0.80214   0.81430   0.81614   0.82143
 Alpha virt. eigenvalues --    0.82561   0.85933   0.86268   0.87613   0.87773
 Alpha virt. eigenvalues --    0.89105   0.91486   0.93392   0.97524   0.99783
 Alpha virt. eigenvalues --    1.00330   1.00338   1.02395   1.03307   1.03540
 Alpha virt. eigenvalues --    1.04265   1.05126   1.05843   1.08477   1.09252
 Alpha virt. eigenvalues --    1.10354   1.11387   1.11842   1.14309   1.14796
 Alpha virt. eigenvalues --    1.15267   1.16538   1.17230   1.19617   1.19989
 Alpha virt. eigenvalues --    1.20769   1.21678   1.22012   1.22560   1.22953
 Alpha virt. eigenvalues --    1.24002   1.24558   1.25843   1.27740   1.29823
 Alpha virt. eigenvalues --    1.30630   1.32233   1.33139   1.35357   1.39564
 Alpha virt. eigenvalues --    1.40305   1.41420   1.46085   1.50632   1.52301
 Alpha virt. eigenvalues --    1.53498   1.55055   1.56362   1.58317   1.59758
 Alpha virt. eigenvalues --    1.60193   1.60964   1.61277   1.63545   1.66452
 Alpha virt. eigenvalues --    1.67472   1.68103   1.70981   1.71961   1.75680
 Alpha virt. eigenvalues --    1.77506   1.82519   1.84710   1.84745   1.86023
 Alpha virt. eigenvalues --    1.91689   1.94553   1.95166   1.95404   1.97941
 Alpha virt. eigenvalues --    2.00234   2.00726   2.01392   2.02088   2.02143
 Alpha virt. eigenvalues --    2.02770   2.03281   2.03586   2.03708   2.04296
 Alpha virt. eigenvalues --    2.06737   2.07413   2.09715   2.11045   2.12832
 Alpha virt. eigenvalues --    2.15022   2.17881   2.18667   2.21061   2.22801
 Alpha virt. eigenvalues --    2.23299   2.25089   2.26322   2.27527   2.29471
 Alpha virt. eigenvalues --    2.31413   2.32457   2.32993   2.33419   2.35637
 Alpha virt. eigenvalues --    2.36217   2.38302   2.38709   2.40222   2.40344
 Alpha virt. eigenvalues --    2.43401   2.44434   2.47067   2.49794   2.52984
 Alpha virt. eigenvalues --    2.56242   2.63722   2.66126   2.73309   2.76074
 Alpha virt. eigenvalues --    2.76584   2.77721   2.81124   2.90384   2.94135
 Alpha virt. eigenvalues --    2.96052   2.97731   2.98184   2.99425   2.99855
 Alpha virt. eigenvalues --    3.03369   3.04736   3.06185   3.09631   3.10572
 Alpha virt. eigenvalues --    3.10730   3.14304   3.14544   3.14792   3.15374
 Alpha virt. eigenvalues --    3.16020   3.16736   3.17268   3.18825   3.30080
 Alpha virt. eigenvalues --    3.33950   3.34719   3.35823   3.36457   3.40138
 Alpha virt. eigenvalues --    3.41477   3.43737   3.92049   3.94023   4.00401
 Alpha virt. eigenvalues --    4.02096   4.12928   4.15587   4.16433   4.17896
 Alpha virt. eigenvalues --    4.18421   4.25095   4.26311   4.34168   4.40813
 Alpha virt. eigenvalues --    4.44800   4.47032   4.61736   4.90302   5.00136
          Condensed to atoms (all electrons):
               1          2          3          4          5          6
     1  O    8.263451   0.318815  -0.075254  -0.088242  -0.001798  -0.000566
     2  N    0.318815   5.225459   0.377916   0.187003  -0.027124  -0.000907
     3  O   -0.075254   0.377916   8.155170  -0.082299   0.002159  -0.000042
     4  O   -0.088242   0.187003  -0.082299   8.442624   0.137265  -0.045917
     5  C   -0.001798  -0.027124   0.002159   0.137265   4.690264   0.333348
     6  C   -0.000566  -0.000907  -0.000042  -0.045917   0.333348   4.690264
     7  O   -0.000024   0.000151   0.000000  -0.000146  -0.045917   0.137265
     8  N    0.000000   0.000000   0.000000   0.000151  -0.000907  -0.027124
     9  O    0.000000   0.000000   0.000000   0.000000  -0.000042   0.002159
    10  O    0.000000   0.000000   0.000000  -0.000024  -0.000566  -0.001798
    11  O   -0.002048   0.000120  -0.000056   0.002781  -0.035102   0.163634
    12  N    0.000052  -0.000014   0.000000  -0.000059   0.002301  -0.035200
    13  O   -0.000001   0.000000   0.000000  -0.000004   0.000442   0.004750
    14  O   -0.000001  -0.000002   0.000000   0.000001  -0.000099   0.003023
    15  O    0.000130   0.000926  -0.000022  -0.030406   0.163634  -0.035102
    16  N   -0.000040   0.000063   0.000003  -0.000487  -0.035200   0.002301
    17  O    0.000000   0.000002   0.000000  -0.000103   0.003023  -0.000099
    18  O   -0.000082   0.001231  -0.000028  -0.003077   0.004751   0.000442
    19  H    0.006167  -0.002925   0.000042  -0.025122   0.389655  -0.040214
    20  H   -0.000006   0.000003   0.000001   0.002003  -0.040214   0.389655
               7          8          9         10         11         12
     1  O   -0.000024   0.000000   0.000000   0.000000  -0.002048   0.000052
     2  N    0.000151   0.000000   0.000000   0.000000   0.000120  -0.000014
     3  O    0.000000   0.000000   0.000000   0.000000  -0.000056   0.000000
     4  O   -0.000146   0.000151   0.000000  -0.000024   0.002781  -0.000059
     5  C   -0.045917  -0.000907  -0.000042  -0.000566  -0.035102   0.002301
     6  C    0.137265  -0.027124   0.002159  -0.001798   0.163634  -0.035200
     7  O    8.442624   0.187003  -0.082299  -0.088242  -0.030406  -0.000487
     8  N    0.187003   5.225459   0.377916   0.318815   0.000926   0.000063
     9  O   -0.082299   0.377916   8.155170  -0.075254  -0.000022   0.000003
    10  O   -0.088242   0.318815  -0.075254   8.263451   0.000130  -0.000040
    11  O   -0.030406   0.000926  -0.000022   0.000130   8.416604   0.189490
    12  N   -0.000487   0.000063   0.000003  -0.000040   0.189490   5.230778
    13  O   -0.003077   0.001231  -0.000028  -0.000082  -0.088806   0.320181
    14  O   -0.000103   0.000002   0.000000   0.000000  -0.083105   0.377309
    15  O    0.002781   0.000120  -0.000056  -0.002048   0.000438  -0.000006
    16  N   -0.000059  -0.000014   0.000000   0.000052  -0.000006   0.000000
    17  O    0.000001  -0.000002   0.000000  -0.000001   0.000000   0.000000
    18  O   -0.000004   0.000000   0.000000  -0.000001   0.000001   0.000000
    19  H    0.002003   0.000003   0.000001  -0.000006   0.002474  -0.000174
    20  H   -0.025122  -0.002925   0.000042   0.006167  -0.027623  -0.003503
              13         14         15         16         17         18
     1  O   -0.000001  -0.000001   0.000130  -0.000040   0.000000  -0.000082
     2  N    0.000000  -0.000002   0.000926   0.000063   0.000002   0.001231
     3  O    0.000000   0.000000  -0.000022   0.000003   0.000000  -0.000028
     4  O   -0.000004   0.000001  -0.030406  -0.000487  -0.000103  -0.003077
     5  C    0.000442  -0.000099   0.163634  -0.035200   0.003023   0.004751
     6  C    0.004750   0.003023  -0.035102   0.002301  -0.000099   0.000442
     7  O   -0.003077  -0.000103   0.002781  -0.000059   0.000001  -0.000004
     8  N    0.001231   0.000002   0.000120  -0.000014  -0.000002   0.000000
     9  O   -0.000028   0.000000  -0.000056   0.000000   0.000000   0.000000
    10  O   -0.000082   0.000000  -0.002048   0.000052  -0.000001  -0.000001
    11  O   -0.088806  -0.083105   0.000438  -0.000006   0.000000   0.000001
    12  N    0.320181   0.377309  -0.000006   0.000000   0.000000   0.000000
    13  O    8.262017  -0.074944   0.000001   0.000000   0.000000   0.000000
    14  O   -0.074944   8.150633   0.000000   0.000000   0.000000   0.000000
    15  O    0.000001   0.000000   8.416604   0.189490  -0.083105  -0.088806
    16  N    0.000000   0.000000   0.189490   5.230778   0.377309   0.320181
    17  O    0.000000   0.000000  -0.083105   0.377309   8.150633  -0.074944
    18  O    0.000000   0.000000  -0.088806   0.320181  -0.074944   8.262017
    19  H    0.000010  -0.000003  -0.027623  -0.003503   0.000011   0.003131
    20  H    0.003131   0.000011   0.002474  -0.000174  -0.000003   0.000010
              19         20
     1  O    0.006167  -0.000006
     2  N   -0.002925   0.000003
     3  O    0.000042   0.000001
     4  O   -0.025122   0.002003
     5  C    0.389655  -0.040214
     6  C   -0.040214   0.389655
     7  O    0.002003  -0.025122
     8  N    0.000003  -0.002925
     9  O    0.000001   0.000042
    10  O   -0.000006   0.006167
    11  O    0.002474  -0.027623
    12  N   -0.000174  -0.003503
    13  O    0.000010   0.003131
    14  O   -0.000003   0.000011
    15  O   -0.027623   0.002474
    16  N   -0.003503  -0.000174
    17  O    0.000011  -0.000003
    18  O    0.003131   0.000010
    19  H    0.393300   0.000441
    20  H    0.000441   0.393300
 Mulliken charges:
               1
     1  O   -0.420553
     2  N    0.919282
     3  O   -0.377589
     4  O   -0.495940
     5  C    0.460128
     6  C    0.460128
     7  O   -0.495940
     8  N    0.919283
     9  O   -0.377589
    10  O   -0.420553
    11  O   -0.509426
    12  N    0.919307
    13  O   -0.424821
    14  O   -0.372721
    15  O   -0.509426
    16  N    0.919307
    17  O   -0.372721
    18  O   -0.424821
    19  H    0.302333
    20  H    0.302333
 Sum of Mulliken charges =   0.00000
 Mulliken charges with hydrogens summed into heavy atoms:
               1
     1  O   -0.420553
     2  N    0.919282
     3  O   -0.377589
     4  O   -0.495940
     5  C    0.762460
     6  C    0.762460
     7  O   -0.495940
     8  N    0.919283
     9  O   -0.377589
    10  O   -0.420553
    11  O   -0.509426
    12  N    0.919307
    13  O   -0.424821
    14  O   -0.372721
    15  O   -0.509426
    16  N    0.919307
    17  O   -0.372721
    18  O   -0.424821
 Electronic spatial extent (au):  <R**2>=           4269.0473
 Charge=              0.0000 electrons
 Dipole moment (field-independent basis, Debye):
    X=              0.0000    Y=              0.0000    Z=             -2.3515  Tot=              2.3515
 Quadrupole moment (field-independent basis, Debye-Ang):
   XX=           -113.2295   YY=           -117.6704   ZZ=           -100.0377
   XY=              0.4976   XZ=              0.0000   YZ=              0.0000
 Traceless Quadrupole moment (field-independent basis, Debye-Ang):
   XX=             -2.9170   YY=             -7.3578   ZZ=             10.2748
   XY=              0.4976   XZ=              0.0000   YZ=              0.0000
 Octapole moment (field-independent basis, Debye-Ang**2):
  XXX=              0.0000  YYY=              0.0000  ZZZ=            -18.7818  XYY=              0.0000
  XXY=              0.0000  XXZ=             16.0312  XZZ=              0.0000  YZZ=              0.0000
  YYZ=             -3.4927  XYZ=            -11.9732
 Hexadecapole moment (field-independent basis, Debye-Ang**3):
 XXXX=          -2812.6434 YYYY=          -1991.4031 ZZZZ=           -545.4054 XXXY=             61.4525
 XXXZ=              0.0000 YYYX=             -8.3286 YYYZ=              0.0000 ZZZX=              0.0000
 ZZZY=              0.0000 XXYY=           -792.9577 XXZZ=           -527.6102 YYZZ=           -429.3010
 XXYZ=              0.0000 YYXZ=              0.0000 ZZXY=            -26.6823
 N-N= 1.523055782093D+03 E-N=-5.852432975393D+03  KE= 1.186753524114D+03
 Calling FoFJK, ICntrl=      2127 FMM=F ISym2X=0 I1Cent= 0 IOpClX= 0 NMat=1 NMatS=1 NMatT=0.
 ***** Axes restored to original set *****
 -------------------------------------------------------------------
 Center     Atomic                   Forces (Hartrees/Bohr)
 Number     Number              X              Y              Z
 -------------------------------------------------------------------
      1        8          -0.016780784   -0.075954894   -0.043063871
      2        7          -0.023523609    0.016658188   -0.024503694
      3        8           0.061811235    0.025929176    0.080944575
      4        8          -0.016332263    0.036686268    0.010045420
      5        6           0.009724982    0.016906967    0.003459928
      6        6          -0.005564879   -0.002448864    0.018852776
      7        8           0.024220564   -0.009270817    0.032263749
      8        7           0.018884772   -0.032779660   -0.000375859
      9        8          -0.033800242    0.071421196    0.069292759
     10        8          -0.007676872   -0.009046672   -0.088116069
     11        8           0.039217772   -0.015208514   -0.001358220
     12        7           0.023095982    0.028920677   -0.014268380
     13        8          -0.070508778    0.045701401   -0.025875923
     14        8           0.011184967   -0.093032522    0.048064578
     15        8          -0.040217889    0.011732899   -0.004005497
     16        7          -0.020845913   -0.021100452    0.026337208
     17        8          -0.013782408    0.084005000   -0.061996607
     18        8           0.068096994   -0.054083554    0.012939967
     19        1          -0.003261334   -0.015255026   -0.017608328
     20        1          -0.003942296   -0.009780795   -0.021028512
 -------------------------------------------------------------------
 Cartesian Forces:  Max     0.093032522 RMS     0.038818139

 GradGradGradGradGradGradGradGradGradGradGradGradGradGradGradGradGradGrad
 Berny optimization.
 FormGI is forming the generalized inverse of G from B-inverse, IUseBI=4.
 Internal  Forces:  Max     0.105310594 RMS     0.033508178
 Search for a local minimum.
 Step number   1 out of a maximum of   90
 All quantities printed in internal units (Hartrees-Bohrs-Radians)
 Mixed Optimization -- RFO/linear search
 Second derivative matrix not updated -- first step.
 ITU=  0
     Eigenvalues ---    0.00230   0.01136   0.01136   0.01158   0.01158
     Eigenvalues ---    0.01252   0.01252   0.01297   0.01297   0.02933
     Eigenvalues ---    0.02933   0.02935   0.02939   0.05788   0.05788
     Eigenvalues ---    0.06538   0.06538   0.08877   0.08877   0.18101
     Eigenvalues ---    0.18101   0.20430   0.20430   0.24989   0.24989
     Eigenvalues ---    0.25000   0.25000   0.25000   0.25000   0.25000
     Eigenvalues ---    0.25000   0.25000   0.25000   0.25000   0.25000
     Eigenvalues ---    0.26467   0.33817   0.33817   0.40527   0.40527
     Eigenvalues ---    0.41007   0.41007   0.43682   0.43682   0.43947
     Eigenvalues ---    0.43947   0.91050   0.91050   0.91367   0.91367
     Eigenvalues ---    0.92426   0.92427   0.92547   0.92547
 RFO step:  Lambda=-1.07827922D-01 EMin= 2.30000000D-03
 Linear search not attempted -- first point.
 Maximum step size (   0.300) exceeded in Quadratic search.
    -- Step size scaled by   0.801
 Iteration  1 RMS(Cart)=  0.07185857 RMS(Int)=  0.00147394
 Iteration  2 RMS(Cart)=  0.00333502 RMS(Int)=  0.00030765
 Iteration  3 RMS(Cart)=  0.00000406 RMS(Int)=  0.00030763
 Iteration  4 RMS(Cart)=  0.00000000 RMS(Int)=  0.00030763
 Variable       Old X    -DE/DX   Delta X   Delta X   Delta X     New X
                                 (Linear)    (Quad)   (Total)
    R1        2.32309  -0.08862   0.00000  -0.06946  -0.06946   2.25364
    R2        2.31834  -0.10508   0.00000  -0.08151  -0.08151   2.23683
    R3        2.66836  -0.04170   0.00000  -0.06130  -0.06130   2.60707
    R4        2.70208  -0.02197   0.00000  -0.03396  -0.03396   2.66812
    R5        2.95617  -0.01716   0.00000  -0.03689  -0.03689   2.91928
    R6        2.70843  -0.03281   0.00000  -0.05119  -0.05119   2.65724
    R7        2.07640  -0.02047   0.00000  -0.03674  -0.03674   2.03965
    R8        2.70208  -0.02197   0.00000  -0.03396  -0.03396   2.66812
    R9        2.70843  -0.03281   0.00000  -0.05119  -0.05119   2.65724
   R10        2.07640  -0.02047   0.00000  -0.03674  -0.03674   2.03965
   R11        2.66836  -0.04170   0.00000  -0.06130  -0.06130   2.60707
   R12        2.31834  -0.10508   0.00000  -0.08151  -0.08151   2.23683
   R13        2.32309  -0.08862   0.00000  -0.06946  -0.06946   2.25364
   R14        2.66518  -0.04140   0.00000  -0.06056  -0.06056   2.60461
   R15        2.32453  -0.08783   0.00000  -0.06905  -0.06905   2.25547
   R16        2.31781  -0.10531   0.00000  -0.08160  -0.08160   2.23621
   R17        2.66518  -0.04140   0.00000  -0.06056  -0.06056   2.60461
   R18        2.31781  -0.10531   0.00000  -0.08160  -0.08160   2.23621
   R19        2.32453  -0.08783   0.00000  -0.06905  -0.06905   2.25547
    A1        2.27290  -0.00470   0.00000  -0.01037  -0.01043   2.26248
    A2        2.04498   0.00949   0.00000   0.02136   0.02131   2.06629
    A3        1.96453  -0.00467   0.00000  -0.01029  -0.01035   1.95419
    A4        1.98732   0.01743   0.00000   0.03899   0.03899   2.02631
    A5        1.90383   0.01447   0.00000   0.03409   0.03352   1.93735
    A6        1.91743  -0.00922   0.00000  -0.03612  -0.03591   1.88152
    A7        2.00160  -0.00824   0.00000  -0.02441  -0.02526   1.97634
    A8        1.87197  -0.01190   0.00000  -0.03244  -0.03206   1.83990
    A9        1.87010   0.00727   0.00000   0.03536   0.03536   1.90546
   A10        1.89422   0.00750   0.00000   0.02394   0.02397   1.91820
   A11        1.90383   0.01447   0.00000   0.03409   0.03352   1.93735
   A12        1.87197  -0.01190   0.00000  -0.03244  -0.03207   1.83990
   A13        1.87010   0.00727   0.00000   0.03536   0.03536   1.90546
   A14        1.91743  -0.00922   0.00000  -0.03612  -0.03591   1.88152
   A15        2.00160  -0.00824   0.00000  -0.02441  -0.02526   1.97634
   A16        1.89422   0.00750   0.00000   0.02394   0.02397   1.91820
   A17        1.98732   0.01743   0.00000   0.03899   0.03899   2.02631
   A18        1.96453  -0.00467   0.00000  -0.01029  -0.01035   1.95419
   A19        2.04498   0.00949   0.00000   0.02136   0.02131   2.06629
   A20        2.27290  -0.00470   0.00000  -0.01037  -0.01043   2.26248
   A21        1.96550   0.00879   0.00000   0.01968   0.01968   1.98517
   A22        2.03968   0.00581   0.00000   0.01299   0.01299   2.05267
   A23        1.96856  -0.00296   0.00000  -0.00662  -0.00662   1.96193
   A24        2.27495  -0.00285   0.00000  -0.00637  -0.00637   2.26857
   A25        1.96550   0.00879   0.00000   0.01968   0.01968   1.98517
   A26        1.96856  -0.00296   0.00000  -0.00662  -0.00663   1.96193
   A27        2.03968   0.00581   0.00000   0.01299   0.01299   2.05267
   A28        2.27495  -0.00285   0.00000  -0.00637  -0.00637   2.26857
    D1        3.09747   0.00358   0.00000   0.02051   0.02040   3.11788
    D2        0.06458  -0.00339   0.00000  -0.02201  -0.02214   0.04245
    D3       -3.11487  -0.00065   0.00000  -0.00516  -0.00504  -3.11991
    D4       -1.68952  -0.01402   0.00000  -0.06756  -0.06738  -1.75690
    D5        2.54635  -0.00278   0.00000  -0.02749  -0.02695   2.51940
    D6        0.40759   0.00045   0.00000  -0.01336  -0.01408   0.39351
    D7       -0.88551   0.00845   0.00000   0.03471   0.03555  -0.84996
    D8        1.19036  -0.00138   0.00000  -0.00807  -0.00767   1.18269
    D9       -3.06182   0.00502   0.00000   0.02119   0.02121  -3.04061
   D10        1.19036  -0.00138   0.00000  -0.00807  -0.00767   1.18269
   D11       -3.01694  -0.01121   0.00000  -0.05085  -0.05089  -3.06784
   D12       -0.98594  -0.00481   0.00000  -0.02159  -0.02201  -1.00796
   D13       -3.06182   0.00502   0.00000   0.02119   0.02121  -3.04061
   D14       -0.98594  -0.00481   0.00000  -0.02159  -0.02201  -1.00796
   D15        1.04505   0.00160   0.00000   0.00767   0.00687   1.05192
   D16       -1.31216   0.00456   0.00000   0.00668   0.00732  -1.30484
   D17        2.90394  -0.00080   0.00000   0.00449   0.00405   2.90799
   D18        0.88892  -0.00690   0.00000  -0.03205  -0.03224   0.85669
   D19       -1.68952  -0.01402   0.00000  -0.06756  -0.06738  -1.75690
   D20        2.54635  -0.00278   0.00000  -0.02749  -0.02695   2.51940
   D21        0.40759   0.00045   0.00000  -0.01336  -0.01408   0.39351
   D22        2.90394  -0.00080   0.00000   0.00449   0.00405   2.90798
   D23       -1.31216   0.00456   0.00000   0.00668   0.00732  -1.30484
   D24        0.88892  -0.00690   0.00000  -0.03205  -0.03224   0.85668
   D25       -3.11487  -0.00065   0.00000  -0.00516  -0.00504  -3.11991
   D26        0.06458  -0.00339   0.00000  -0.02201  -0.02214   0.04245
   D27       -3.09747  -0.00358   0.00000  -0.02051  -0.02040  -3.11788
   D28        0.01782  -0.00179   0.00000  -0.01180  -0.01180   0.00602
   D29       -3.12215  -0.00126   0.00000  -0.00869  -0.00869  -3.13084
   D30       -3.13963   0.00064   0.00000   0.00375   0.00375  -3.13588
   D31       -3.12215  -0.00125   0.00000  -0.00861  -0.00859  -3.13075
   D32        0.01781  -0.00181   0.00000  -0.01188  -0.01189   0.00592
   D33        3.13969  -0.00065   0.00000  -0.00381  -0.00380   3.13590
         Item               Value     Threshold  Converged?
 Maximum Force            0.105311     0.000450     NO 
 RMS     Force            0.033508     0.000300     NO 
 Maximum Displacement     0.237189     0.001800     NO 
 RMS     Displacement     0.071031     0.001200     NO 
 Predicted change in Energy=-5.776817D-02
 GradGradGradGradGradGradGradGradGradGradGradGradGradGradGradGradGradGrad

                          Input orientation:                          
 ---------------------------------------------------------------------
 Center     Atomic      Atomic             Coordinates (Angstroms)
 Number     Number       Type             X           Y           Z
 ---------------------------------------------------------------------
      1          8           0       -2.319451    1.694241   -0.506239
      2          7           0       -2.378112    0.634538   -1.050129
      3          8           0       -3.068431    0.282302   -1.944829
      4          8           0       -1.519948   -0.363395   -0.636635
      5          6           0       -0.673319   -0.044847    0.447446
      6          6           0        0.748385    0.305753   -0.044792
      7          8           0        1.223749   -0.666034   -0.952065
      8          7           0        2.100662   -1.598806   -0.438009
      9          8           0        2.470137   -2.361666   -1.264223
     10          8           0        2.360240   -1.552462    0.725048
     11          8           0        0.613367    1.517826   -0.744728
     12          7           0        1.813312    2.141394   -1.011212
     13          8           0        2.811206    1.603026   -0.638496
     14          8           0        1.671678    3.163740   -1.590067
     15          8           0       -0.522850   -1.203220    1.230258
     16          7           0       -1.630185   -1.504918    1.993479
     17          8           0       -1.473854   -2.476259    2.651036
     18          8           0       -2.574234   -0.779477    1.909459
     19          1           0       -1.047216    0.764126    1.056326
     20          1           0        1.394863    0.444137    0.808371
 ---------------------------------------------------------------------
                    Distance matrix (angstroms):
                    1          2          3          4          5
     1  O    0.000000
     2  N    1.192573   0.000000
     3  O    2.150369   1.183679   0.000000
     4  O    2.211352   1.379599   2.127462   0.000000
     5  C    2.577537   2.368675   3.400966   1.411909   0.000000
     6  C    3.398889   3.300574   4.263657   2.437903   1.544817
     7  O    4.280645   3.830732   4.506409   2.778301   2.437903
     8  N    5.512369   5.042017   5.703384   3.830732   3.300574
     9  O    6.321794   5.703385   6.174911   4.506410   4.263657
    10  O    5.827234   5.512369   6.321793   4.280645   3.398889
    11  O    2.947783   3.134074   4.064776   2.846351   2.349211
    12  N    4.187442   4.454230   5.306531   4.186275   3.618103
    13  O    5.133172   5.294945   6.166113   4.756649   4.004582
    14  O    4.388989   4.805122   5.558523   4.851411   4.466040
    15  O    3.826026   3.466918   4.332197   2.277016   1.406151
    16  N    4.118045   3.794762   4.557738   2.869273   2.331869
    17  O    5.298726   4.918676   5.592343   3.908338   3.377636
    18  O    3.466957   3.285889   4.028292   2.786976   2.508114
    19  H    2.219303   2.495041   3.650259   2.088276   1.079339
    20  H    4.133653   4.210181   5.246646   3.352055   2.155632
                    6          7          8          9         10
     6  C    0.000000
     7  O    1.411909   0.000000
     8  N    2.368675   1.379599   0.000000
     9  O    3.400965   2.127462   1.183679   0.000000
    10  O    2.577537   2.211352   1.192573   2.150369   0.000000
    11  O    1.406151   2.277016   3.466918   4.332197   3.826026
    12  N    2.331869   2.869274   3.794763   4.557739   4.118046
    13  O    2.508114   2.786930   3.285848   4.028231   3.466948
    14  O    3.377638   3.908306   4.918649   5.592300   5.298720
    15  O    2.349211   2.846351   3.134074   4.064776   2.947782
    16  N    3.618103   4.186274   4.454230   5.306531   4.187442
    17  O    4.466031   4.851424   4.805132   5.558548   4.388976
    18  O    4.004574   4.756665   5.294955   6.166137   5.133163
    19  H    2.155632   3.352055   4.210181   5.246646   4.133653
    20  H    1.079339   2.088276   2.495041   3.650259   2.219303
                   11         12         13         14         15
    11  O    0.000000
    12  N    1.378302   0.000000
    13  O    2.202054   1.193546   0.000000
    14  O    2.131585   1.183353   2.154029   0.000000
    15  O    3.549035   4.654920   4.741644   5.642741   0.000000
    16  N    4.654920   5.846488   6.025990   6.748368   1.378302
    17  O    5.642732   6.748351   6.769294   7.725990   2.131583
    18  O    4.741636   6.025974   6.416491   6.769299   2.202054
    19  H    2.563084   3.788694   4.296929   4.489313   2.043443
    20  H    2.043443   2.523225   2.332911   3.636671   2.563084
                   16         17         18         19         20
    16  N    0.000000
    17  O    1.183353   0.000000
    18  O    1.193546   2.154029   0.000000
    19  H    2.523225   3.636649   2.332880   0.000000
    20  H    3.788695   4.489284   4.296901   2.475404   0.000000
 Stoichiometry    C2H2N4O12
 Framework group  C1[X(C2H2N4O12)]
 Deg. of freedom    54
 Full point group                 C1      NOp   1
 Largest Abelian subgroup         C1      NOp   1
 Largest concise Abelian subgroup C1      NOp   1
                         Standard orientation:                         
 ---------------------------------------------------------------------
 Center     Atomic      Atomic             Coordinates (Angstroms)
 Number     Number       Type             X           Y           Z
 ---------------------------------------------------------------------
      1          8           0       -1.104708   -2.696070   -0.248649
      2          7           0       -1.333918   -2.139195    0.780711
      3          8           0       -1.686850   -2.585908    1.818489
      4          8           0       -1.154436   -0.772666    0.841360
      5          6           0       -0.758825   -0.144253   -0.359504
      6          6           0        0.758813    0.144255   -0.359517
      7          8           0        1.154447    0.772655    0.841347
      8          7           0        1.333928    2.139185    0.780710
      9          8           0        1.686882    2.585886    1.818485
     10          8           0        1.104697    2.696071   -0.248640
     11          8           0        1.379075   -1.116712   -0.409507
     12          7           0        2.723333   -1.062429   -0.709073
     13          8           0        3.208213    0.014210   -0.883120
     14          8           0        3.218683   -2.136069   -0.756499
     15          8           0       -1.379088    1.116715   -0.409468
     16          7           0       -2.723352    1.062435   -0.709005
     17          8           0       -3.218680    2.136082   -0.756508
     18          8           0       -3.208215   -0.014195   -0.883154
     19          1           0       -1.011524   -0.713264   -1.241173
     20          1           0        1.011495    0.713277   -1.241184
 ---------------------------------------------------------------------
 Rotational constants (GHZ):           0.4911086           0.3651558           0.2551988
 Standard basis: 6-31G(d) (6D, 7F)
 There are   274 symmetry adapted cartesian basis functions of A   symmetry.
 There are   274 symmetry adapted basis functions of A   symmetry.
   274 basis functions,   512 primitive gaussians,   274 cartesian basis functions
    69 alpha electrons       69 beta electrons
       nuclear repulsion energy      1547.0373187078 Hartrees.
 NAtoms=   20 NActive=   20 NUniq=   20 SFac= 1.00D+00 NAtFMM=   60 NAOKFM=F Big=F
 Integral buffers will be    131072 words long.
 Raffenetti 1 integral format.
 Two-electron integral symmetry is turned on.
 One-electron integrals computed using PRISM.
 NBasis=   274 RedAO= T EigKep=  1.70D-03  NBF=   274
 NBsUse=   274 1.00D-06 EigRej= -1.00D+00 NBFU=   274
 Initial guess from the checkpoint file:  "C:\g16w\Scratch\Gau-18152.chk"
 B after Tr=     0.000000    0.000000    0.000000
         Rot=    0.998743   -0.000001   -0.000001    0.050114 Ang=  -5.75 deg.
 ExpMin= 1.61D-01 ExpMax= 5.48D+03 ExpMxC= 8.25D+02 IAcc=3 IRadAn=         5 AccDes= 0.00D+00
 Harris functional with IExCor=  205 and IRadAn=       5 diagonalized for initial guess.
 HarFok:  IExCor=  205 AccDes= 0.00D+00 IRadAn=         5 IDoV= 1 UseB2=F ITyADJ=14
 ICtDFT=  3500011 ScaDFX=  1.000000  1.000000  1.000000  1.000000
 FoFCou: FMM=F IPFlag=           0 FMFlag=      100000 FMFlg1=           0
         NFxFlg=           0 DoJE=T BraDBF=F KetDBF=T FulRan=T
         wScrn=  0.000000 ICntrl=       500 IOpCl=  0 I1Cent=   200000004 NGrid=           0
         NMat0=    1 NMatS0=      1 NMatT0=    0 NMatD0=    1 NMtDS0=    0 NMtDT0=    0
 Petite list used in FoFCou.
 Requested convergence on RMS density matrix=1.00D-08 within 128 cycles.
 Requested convergence on MAX density matrix=1.00D-06.
 Requested convergence on             energy=1.00D-06.
 No special actions if energy rises.
 Integral accuracy reduced to 1.0D-05 until final iterations.
 Initial convergence to 1.0D-05 achieved.  Increase integral accuracy.
 SCF Done:  E(RHF) =  -1192.32113472     A.U. after   15 cycles
            NFock= 15  Conv=0.75D-08     -V/T= 2.0031
 Calling FoFJK, ICntrl=      2127 FMM=F ISym2X=0 I1Cent= 0 IOpClX= 0 NMat=1 NMatS=1 NMatT=0.
 ***** Axes restored to original set *****
 -------------------------------------------------------------------
 Center     Atomic                   Forces (Hartrees/Bohr)
 Number     Number              X              Y              Z
 -------------------------------------------------------------------
      1        8          -0.001192636   -0.025385380   -0.009527008
      2        7          -0.009928666    0.000159913   -0.011934500
      3        8           0.018378260    0.009406588    0.025438935
      4        8          -0.002651022    0.019117479    0.004801273
      5        6           0.008306534    0.004025967   -0.000172508
      6        6          -0.007284543   -0.000475669    0.005651539
      7        8           0.006929766   -0.004244646    0.018152710
      8        7           0.006421253   -0.012348883   -0.006877586
      9        8          -0.009416529    0.021739974    0.022629278
     10        8          -0.005522930    0.002045134   -0.026493532
     11        8           0.018059653   -0.008789410    0.000302775
     12        7           0.003197358    0.015434166   -0.008413638
     13        8          -0.022749021    0.011970803   -0.006875949
     14        8           0.004560532   -0.029067304    0.015876228
     15        8          -0.018582673    0.006979533   -0.003095450
     16        7          -0.002619762   -0.013462589    0.011451262
     17        8          -0.005108042    0.027178453   -0.018788672
     18        8           0.021880803   -0.014974764    0.002241567
     19        1          -0.002973133   -0.002772314   -0.008098559
     20        1           0.000294798   -0.006537053   -0.006268165
 -------------------------------------------------------------------
 Cartesian Forces:  Max     0.029067304 RMS     0.013118100

 GradGradGradGradGradGradGradGradGradGradGradGradGradGradGradGradGradGrad
 Berny optimization.
 Using GEDIIS/GDIIS optimizer.
 FormGI is forming the generalized inverse of G from B-inverse, IUseBI=4.
 Internal  Forces:  Max     0.033424344 RMS     0.010941537
 Search for a local minimum.
 Step number   2 out of a maximum of   90
 All quantities printed in internal units (Hartrees-Bohrs-Radians)
 Mixed Optimization -- RFO/linear search
 Update second derivatives using D2CorX and points    1    2
 DE= -5.88D-02 DEPred=-5.78D-02 R= 1.02D+00
 TightC=F SS=  1.41D+00  RLast= 3.33D-01 DXNew= 5.0454D-01 9.9985D-01
 Trust test= 1.02D+00 RLast= 3.33D-01 DXMaxT set to 5.05D-01
 ITU=  1  0
 Use linear search instead of GDIIS.
     Eigenvalues ---    0.00230   0.01136   0.01137   0.01157   0.01158
     Eigenvalues ---    0.01251   0.01252   0.01297   0.01312   0.02909
     Eigenvalues ---    0.02913   0.02928   0.02933   0.05475   0.05479
     Eigenvalues ---    0.06735   0.06828   0.09145   0.09255   0.18104
     Eigenvalues ---    0.18201   0.20128   0.20285   0.24412   0.24997
     Eigenvalues ---    0.24998   0.25000   0.25000   0.25000   0.25000
     Eigenvalues ---    0.25000   0.25000   0.25000   0.25000   0.25651
     Eigenvalues ---    0.26474   0.33817   0.34050   0.40527   0.40760
     Eigenvalues ---    0.40908   0.41007   0.43363   0.43682   0.43947
     Eigenvalues ---    0.44252   0.87247   0.91050   0.91182   0.91367
     Eigenvalues ---    0.91767   0.92426   0.92494   0.92547
 RFO step:  Lambda=-5.29149213D-03 EMin= 2.29968613D-03
 Quartic linear search produced a step of  0.40868.
 Iteration  1 RMS(Cart)=  0.11309097 RMS(Int)=  0.00735061
 Iteration  2 RMS(Cart)=  0.00852204 RMS(Int)=  0.00012511
 Iteration  3 RMS(Cart)=  0.00004539 RMS(Int)=  0.00012172
 Iteration  4 RMS(Cart)=  0.00000000 RMS(Int)=  0.00012172
 Variable       Old X    -DE/DX   Delta X   Delta X   Delta X     New X
                                 (Linear)    (Quad)   (Total)
    R1        2.25364  -0.02696  -0.02839  -0.00161  -0.02999   2.22364
    R2        2.23683  -0.03275  -0.03331  -0.00310  -0.03642   2.20041
    R3        2.60707  -0.01715  -0.02505  -0.01260  -0.03765   2.56942
    R4        2.66812  -0.01025  -0.01388  -0.01097  -0.02485   2.64327
    R5        2.91928  -0.00985  -0.01508  -0.02092  -0.03600   2.88328
    R6        2.65724  -0.00975  -0.02092   0.00251  -0.01841   2.63883
    R7        2.03965  -0.00562  -0.01502   0.00446  -0.01056   2.02910
    R8        2.66812  -0.01025  -0.01388  -0.01097  -0.02485   2.64327
    R9        2.65724  -0.00975  -0.02092   0.00251  -0.01841   2.63883
   R10        2.03965  -0.00562  -0.01502   0.00446  -0.01056   2.02910
   R11        2.60707  -0.01715  -0.02505  -0.01260  -0.03765   2.56942
   R12        2.23683  -0.03275  -0.03331  -0.00310  -0.03642   2.20041
   R13        2.25364  -0.02696  -0.02839  -0.00161  -0.02999   2.22364
   R14        2.60461  -0.01392  -0.02475  -0.00263  -0.02738   2.57723
   R15        2.25547  -0.02657  -0.02822  -0.00135  -0.02957   2.22590
   R16        2.23621  -0.03342  -0.03335  -0.00403  -0.03738   2.19884
   R17        2.60461  -0.01392  -0.02475  -0.00263  -0.02738   2.57723
   R18        2.23621  -0.03342  -0.03335  -0.00403  -0.03738   2.19884
   R19        2.25547  -0.02657  -0.02822  -0.00135  -0.02957   2.22590
    A1        2.26248   0.00171  -0.00426   0.01845   0.01408   2.27656
    A2        2.06629  -0.00334   0.00871  -0.03621  -0.02761   2.03868
    A3        1.95419   0.00167  -0.00423   0.01810   0.01376   1.96795
    A4        2.02631   0.00567   0.01593  -0.00168   0.01425   2.04056
    A5        1.93735   0.00308   0.01370  -0.02082  -0.00748   1.92987
    A6        1.88152  -0.00222  -0.01467   0.01100  -0.00368   1.87784
    A7        1.97634  -0.00402  -0.01032  -0.02026  -0.03087   1.94547
    A8        1.83990  -0.00491  -0.01310  -0.00165  -0.01474   1.82516
    A9        1.90546   0.00372   0.01445  -0.00019   0.01408   1.91954
   A10        1.91820   0.00424   0.00980   0.03418   0.04399   1.96218
   A11        1.93735   0.00308   0.01370  -0.02082  -0.00748   1.92986
   A12        1.83990  -0.00491  -0.01310  -0.00165  -0.01474   1.82516
   A13        1.90546   0.00372   0.01445  -0.00019   0.01407   1.91954
   A14        1.88152  -0.00222  -0.01467   0.01100  -0.00368   1.87785
   A15        1.97634  -0.00401  -0.01032  -0.02026  -0.03087   1.94547
   A16        1.91820   0.00424   0.00980   0.03419   0.04399   1.96218
   A17        2.02631   0.00567   0.01593  -0.00169   0.01425   2.04056
   A18        1.95419   0.00167  -0.00423   0.01810   0.01376   1.96795
   A19        2.06629  -0.00334   0.00871  -0.03621  -0.02761   2.03868
   A20        2.26248   0.00171  -0.00426   0.01845   0.01408   2.27656
   A21        1.98517   0.01203   0.00804   0.04967   0.05771   2.04288
   A22        2.05267  -0.00167   0.00531  -0.02016  -0.01486   2.03781
   A23        1.96193   0.00143  -0.00271   0.01347   0.01075   1.97268
   A24        2.26857   0.00023  -0.00260   0.00667   0.00406   2.27263
   A25        1.98517   0.01203   0.00804   0.04966   0.05770   2.04288
   A26        1.96193   0.00143  -0.00271   0.01346   0.01075   1.97268
   A27        2.05267  -0.00167   0.00531  -0.02015  -0.01485   2.03782
   A28        2.26857   0.00023  -0.00260   0.00667   0.00406   2.27263
    D1        3.11788   0.00202   0.00834   0.01733   0.02581  -3.13950
    D2        0.04245  -0.00201  -0.00905  -0.01467  -0.02355   0.01889
    D3       -3.11991  -0.00017  -0.00206   0.00122  -0.00100  -3.12091
    D4       -1.75690  -0.00663  -0.02754  -0.04350  -0.07110  -1.82800
    D5        2.51940  -0.00113  -0.01101  -0.03673  -0.04759   2.47181
    D6        0.39351  -0.00235  -0.00575  -0.07466  -0.08051   0.31300
    D7       -0.84996   0.00184   0.01453  -0.08903  -0.07429  -0.92425
    D8        1.18269  -0.00202  -0.00314  -0.08735  -0.09038   1.09231
    D9       -3.04061   0.00214   0.00867  -0.04835  -0.03969  -3.08031
   D10        1.18269  -0.00202  -0.00314  -0.08735  -0.09038   1.09231
   D11       -3.06784  -0.00588  -0.02080  -0.08568  -0.10646   3.10888
   D12       -1.00796  -0.00172  -0.00900  -0.04668  -0.05578  -1.06374
   D13       -3.04061   0.00214   0.00867  -0.04835  -0.03969  -3.08031
   D14       -1.00796  -0.00172  -0.00900  -0.04668  -0.05578  -1.06374
   D15        1.05192   0.00245   0.00281  -0.00768  -0.00510   1.04683
   D16       -1.30484  -0.00003   0.00299  -0.06592  -0.06265  -1.36748
   D17        2.90799   0.00002   0.00165  -0.04633  -0.04484   2.86314
   D18        0.85669  -0.00376  -0.01317  -0.06228  -0.07558   0.78111
   D19       -1.75690  -0.00664  -0.02754  -0.04351  -0.07111  -1.82801
   D20        2.51940  -0.00113  -0.01101  -0.03674  -0.04760   2.47180
   D21        0.39351  -0.00235  -0.00575  -0.07467  -0.08053   0.31299
   D22        2.90798   0.00002   0.00165  -0.04639  -0.04490   2.86308
   D23       -1.30484  -0.00003   0.00299  -0.06599  -0.06271  -1.36755
   D24        0.85668  -0.00376  -0.01317  -0.06234  -0.07563   0.78105
   D25       -3.11991  -0.00017  -0.00206   0.00121  -0.00101  -3.12092
   D26        0.04245  -0.00201  -0.00905  -0.01468  -0.02356   0.01889
   D27       -3.11788  -0.00202  -0.00834  -0.01733  -0.02581   3.13950
   D28        0.00602  -0.00200  -0.00482  -0.09035  -0.09517  -0.08915
   D29       -3.13084  -0.00164  -0.00355  -0.08582  -0.08937   3.06298
   D30       -3.13588   0.00043   0.00153   0.00546   0.00699  -3.12889
   D31       -3.13075  -0.00164  -0.00351  -0.08606  -0.08958   3.06286
   D32        0.00592  -0.00200  -0.00486  -0.09016  -0.09500  -0.08908
   D33        3.13590  -0.00043  -0.00155  -0.00484  -0.00640   3.12950
         Item               Value     Threshold  Converged?
 Maximum Force            0.033424     0.000450     NO 
 RMS     Force            0.010942     0.000300     NO 
 Maximum Displacement     0.364879     0.001800     NO 
 RMS     Displacement     0.112885     0.001200     NO 
 Predicted change in Energy=-1.087277D-02
 GradGradGradGradGradGradGradGradGradGradGradGradGradGradGradGradGradGrad

                          Input orientation:                          
 ---------------------------------------------------------------------
 Center     Atomic      Atomic             Coordinates (Angstroms)
 Number     Number       Type             X           Y           Z
 ---------------------------------------------------------------------
      1          8           0       -2.338296    1.698611   -0.390859
      2          7           0       -2.373046    0.709412   -1.027180
      3          8           0       -3.043057    0.417697   -1.933732
      4          8           0       -1.506042   -0.277009   -0.675045
      5          6           0       -0.675330   -0.027882    0.422396
      6          6           0        0.746717    0.275917   -0.039618
      7          8           0        1.214991   -0.734515   -0.885946
      8          7           0        2.114149   -1.609206   -0.361398
      9          8           0        2.471261   -2.404880   -1.132905
     10          8           0        2.408526   -1.454629    0.767351
     11          8           0        0.627869    1.441491   -0.799403
     12          7           0        1.775389    2.129839   -1.062753
     13          8           0        2.759841    1.735538   -0.550090
     14          8           0        1.608401    3.040177   -1.767953
     15          8           0       -0.563316   -1.217204    1.145530
     16          7           0       -1.609181   -1.552192    1.954188
     17          8           0       -1.479787   -2.593051    2.457951
     18          8           0       -2.480717   -0.765308    2.047362
     19          1           0       -1.047515    0.782027    1.021118
     20          1           0        1.389141    0.405167    0.810987
 ---------------------------------------------------------------------
                    Distance matrix (angstroms):
                    1          2          3          4          5
     1  O    0.000000
     2  N    1.176701   0.000000
     3  O    2.125532   1.164409   0.000000
     4  O    2.162518   1.359677   2.104596   0.000000
     5  C    2.531327   2.350981   3.369867   1.398758   0.000000
     6  C    3.415368   3.300927   4.239122   2.405082   1.525769
     7  O    4.334866   3.870256   4.533919   2.767275   2.405078
     8  N    5.546782   5.094525   5.759978   3.870260   3.300927
     9  O    6.365619   5.759974   6.246276   4.533917   4.239117
    10  O    5.815213   5.546788   6.365627   4.334875   3.415373
    11  O    3.005188   3.097307   3.976248   2.742678   2.313044
    12  N    4.190442   4.385019   5.187239   4.087913   3.587123
    13  O    5.100757   5.256146   6.109402   4.718445   3.981931
    14  O    4.390058   4.672593   5.342372   4.679523   4.407498
    15  O    3.743397   3.421643   4.278302   2.255481   1.396409
    16  N    4.074135   3.819281   4.588288   2.923969   2.354143
    17  O    5.222176   4.883679   5.549351   3.896204   3.372051
    18  O    3.469309   3.411628   4.191043   2.932564   2.538452
    19  H    2.121301   2.440866   3.584140   2.051530   1.073751
    20  H    4.124466   4.198271   5.213254   3.325018   2.144895
                    6          7          8          9         10
     6  C    0.000000
     7  O    1.398758   0.000000
     8  N    2.350979   1.359677   0.000000
     9  O    3.369866   2.104595   1.164409   0.000000
    10  O    2.531324   2.162517   1.176702   2.125532   0.000000
    11  O    1.396409   2.255483   3.421641   4.278304   3.743390
    12  N    2.354145   2.924010   3.819309   4.588337   4.074133
    13  O    2.538452   2.932664   3.411720   4.191183   3.469328
    14  O    3.372058   3.896281   4.883743   5.549456   5.222189
    15  O    2.313044   2.742673   3.097308   3.976241   3.005201
    16  N    3.587131   4.087897   4.385018   5.187217   4.190474
    17  O    4.407511   4.679490   4.672586   5.342324   4.390115
    18  O    3.981956   4.718422   5.256148   6.109368   5.100814
    19  H    2.144896   3.325015   4.198270   5.213250   4.124470
    20  H    1.073752   2.051532   2.440865   3.584140   2.121295
                   11         12         13         14         15
    11  O    0.000000
    12  N    1.363811   0.000000
    13  O    2.166547   1.177898   0.000000
    14  O    2.110766   1.163575   2.123932   0.000000
    15  O    3.502904   4.642063   4.757855   5.597324   0.000000
    16  N    4.642068   5.840771   6.014061   6.730307   1.363811
    17  O    5.597329   6.730321   6.764572   7.689501   2.110764
    18  O    4.757872   6.014079   6.361167   6.764558   2.166550
    19  H    2.560488   3.758710   4.227746   4.464532   2.060789
    20  H    2.060790   2.575769   2.345471   3.693547   2.560487
                   16         17         18         19         20
    16  N    0.000000
    17  O    1.163575   0.000000
    18  O    1.177898   2.123933   0.000000
    19  H    2.575785   3.693576   2.345527   0.000000
    20  H    3.758736   4.464588   4.227818   2.474565   0.000000
 Stoichiometry    C2H2N4O12
 Framework group  C1[X(C2H2N4O12)]
 Deg. of freedom    54
 Full point group                 C1      NOp   1
 Largest Abelian subgroup         C1      NOp   1
 Largest concise Abelian subgroup C1      NOp   1
                         Standard orientation:                         
 ---------------------------------------------------------------------
 Center     Atomic      Atomic             Coordinates (Angstroms)
 Number     Number       Type             X           Y           Z
 ---------------------------------------------------------------------
      1          8           0       -1.130477   -2.678834   -0.341468
      2          7           0       -1.282567   -2.200801    0.722947
      3          8           0       -1.584825   -2.691149    1.734899
      4          8           0       -1.084144   -0.859703    0.826908
      5          6           0       -0.741931   -0.177508   -0.345280
      6          6           0        0.741960    0.177510   -0.345251
      7          8           0        1.084112    0.859738    0.826935
      8          7           0        1.282549    2.200830    0.722945
      9          8           0        1.584747    2.691209    1.734900
     10          8           0        1.130526    2.678830   -0.341495
     11          8           0        1.398115   -1.054938   -0.323117
     12          7           0        2.721679   -1.058869   -0.651968
     13          8           0        3.180366   -0.037339   -1.017379
     14          8           0        3.217726   -2.104382   -0.530526
     15          8           0       -1.398088    1.054941   -0.323210
     16          7           0       -2.721654    1.058849   -0.652050
     17          8           0       -3.217731    2.104339   -0.530540
     18          8           0       -3.180364    0.037281   -1.017330
     19          1           0       -0.981396   -0.753445   -1.219290
     20          1           0        0.981463    0.753424   -1.219267
 ---------------------------------------------------------------------
 Rotational constants (GHZ):           0.4902460           0.3758726           0.2557628
 Standard basis: 6-31G(d) (6D, 7F)
 There are   274 symmetry adapted cartesian basis functions of A   symmetry.
 There are   274 symmetry adapted basis functions of A   symmetry.
   274 basis functions,   512 primitive gaussians,   274 cartesian basis functions
    69 alpha electrons       69 beta electrons
       nuclear repulsion energy      1557.8131587699 Hartrees.
 NAtoms=   20 NActive=   20 NUniq=   20 SFac= 1.00D+00 NAtFMM=   60 NAOKFM=F Big=F
 Integral buffers will be    131072 words long.
 Raffenetti 1 integral format.
 Two-electron integral symmetry is turned on.
 One-electron integrals computed using PRISM.
 NBasis=   274 RedAO= T EigKep=  1.52D-03  NBF=   274
 NBsUse=   274 1.00D-06 EigRej= -1.00D+00 NBFU=   274
 Initial guess from the checkpoint file:  "C:\g16w\Scratch\Gau-18152.chk"
 B after Tr=     0.000000    0.000000    0.000000
         Rot=    0.999982    0.000005    0.000004   -0.006082 Ang=   0.70 deg.
 ExpMin= 1.61D-01 ExpMax= 5.48D+03 ExpMxC= 8.25D+02 IAcc=3 IRadAn=         5 AccDes= 0.00D+00
 Harris functional with IExCor=  205 and IRadAn=       5 diagonalized for initial guess.
 HarFok:  IExCor=  205 AccDes= 0.00D+00 IRadAn=         5 IDoV= 1 UseB2=F ITyADJ=14
 ICtDFT=  3500011 ScaDFX=  1.000000  1.000000  1.000000  1.000000
 FoFCou: FMM=F IPFlag=           0 FMFlag=      100000 FMFlg1=           0
         NFxFlg=           0 DoJE=T BraDBF=F KetDBF=T FulRan=T
         wScrn=  0.000000 ICntrl=       500 IOpCl=  0 I1Cent=   200000004 NGrid=           0
         NMat0=    1 NMatS0=      1 NMatT0=    0 NMatD0=    1 NMtDS0=    0 NMtDT0=    0
 Petite list used in FoFCou.
 Requested convergence on RMS density matrix=1.00D-08 within 128 cycles.
 Requested convergence on MAX density matrix=1.00D-06.
 Requested convergence on             energy=1.00D-06.
 No special actions if energy rises.
 Integral accuracy reduced to 1.0D-05 until final iterations.
 Initial convergence to 1.0D-05 achieved.  Increase integral accuracy.
 SCF Done:  E(RHF) =  -1192.32896288     A.U. after   17 cycles
            NFock= 17  Conv=0.35D-08     -V/T= 2.0023
 Calling FoFJK, ICntrl=      2127 FMM=F ISym2X=0 I1Cent= 0 IOpClX= 0 NMat=1 NMatS=1 NMatT=0.
 ***** Axes restored to original set *****
 -------------------------------------------------------------------
 Center     Atomic                   Forces (Hartrees/Bohr)
 Number     Number              X              Y              Z
 -------------------------------------------------------------------
      1        8          -0.004982835    0.009989926    0.000287522
      2        7           0.003870173   -0.006039989    0.005908913
      3        8          -0.003103218   -0.000609906   -0.004701919
      4        8          -0.000201073   -0.001688444   -0.001877613
      5        6           0.001161580    0.002747062    0.003767607
      6        6           0.000314167    0.002388845    0.004157610
      7        8          -0.000569007   -0.000991547   -0.002260016
      8        7          -0.003173934    0.008459241   -0.002172948
      9        8           0.001648414   -0.004446686   -0.003101823
     10        8           0.006478220   -0.004794306    0.007730392
     11        8          -0.001237352   -0.001795228   -0.001720461
     12        7          -0.003963592   -0.005659085    0.003763902
     13        8           0.005845856   -0.002669782    0.002561695
     14        8          -0.002189748    0.004112325   -0.003715893
     15        8           0.000443473   -0.000974581   -0.002553327
     16        7           0.003777561    0.005066488   -0.004681292
     17        8           0.001823200   -0.005405307    0.001723122
     18        8          -0.005343562    0.004389157    0.000092445
     19        1          -0.000965459   -0.002754835   -0.000367390
     20        1           0.000367138    0.000676653   -0.002840526
 -------------------------------------------------------------------
 Cartesian Forces:  Max     0.009989926 RMS     0.003804721

 GradGradGradGradGradGradGradGradGradGradGradGradGradGradGradGradGradGrad
 Berny optimization.
 Using GEDIIS/GDIIS optimizer.
 FormGI is forming the generalized inverse of G from B-inverse, IUseBI=4.
 Internal  Forces:  Max     0.010909426 RMS     0.004046306
 Search for a local minimum.
 Step number   3 out of a maximum of   90
 All quantities printed in internal units (Hartrees-Bohrs-Radians)
 Mixed Optimization -- RFO/linear search
 Update second derivatives using D2CorX and points    2    3
 DE= -7.83D-03 DEPred=-1.09D-02 R= 7.20D-01
 TightC=F SS=  1.41D+00  RLast= 4.05D-01 DXNew= 8.4853D-01 1.2139D+00
 Trust test= 7.20D-01 RLast= 4.05D-01 DXMaxT set to 8.49D-01
 ITU=  1  1  0
 Use linear search instead of GDIIS.
     Eigenvalues ---    0.00230   0.01136   0.01137   0.01158   0.01186
     Eigenvalues ---    0.01252   0.01282   0.01297   0.01316   0.02932
     Eigenvalues ---    0.02932   0.02938   0.02966   0.05500   0.05607
     Eigenvalues ---    0.06901   0.06971   0.09053   0.09141   0.17925
     Eigenvalues ---    0.18029   0.20013   0.20020   0.23349   0.24999
     Eigenvalues ---    0.24999   0.25000   0.25000   0.25000   0.25000
     Eigenvalues ---    0.25000   0.25000   0.25000   0.25123   0.26405
     Eigenvalues ---    0.30725   0.33817   0.34003   0.40120   0.40527
     Eigenvalues ---    0.41007   0.41436   0.43619   0.43682   0.43947
     Eigenvalues ---    0.45523   0.91050   0.91108   0.91228   0.91367
     Eigenvalues ---    0.92426   0.92487   0.92547   1.00479
 RFO step:  Lambda=-4.73608540D-03 EMin= 2.29776909D-03
 Quartic linear search produced a step of -0.12014.
 Iteration  1 RMS(Cart)=  0.11610925 RMS(Int)=  0.00424580
 Iteration  2 RMS(Cart)=  0.00714511 RMS(Int)=  0.00009091
 Iteration  3 RMS(Cart)=  0.00002986 RMS(Int)=  0.00008849
 Iteration  4 RMS(Cart)=  0.00000000 RMS(Int)=  0.00008849
 Variable       Old X    -DE/DX   Delta X   Delta X   Delta X     New X
                                 (Linear)    (Quad)   (Total)
    R1        2.22364   0.00841   0.00360   0.00390   0.00750   2.23114
    R2        2.20041   0.00560   0.00437   0.00022   0.00459   2.20500
    R3        2.56942   0.00472   0.00452   0.00230   0.00682   2.57624
    R4        2.64327   0.00263   0.00299   0.00055   0.00354   2.64681
[...]
 0.00051690,-0.00167667,0.00021348,-0.00157040,0.00084868,0.00012649,0.
 00095918,0.00183318,-0.00031095,0.00111145,-0.00222274,0.00025795,-0.0
 0056910,-0.00293231,0.00155505,0.00067104,0.01427040,-0.01180917,0.026
 32444,0.14994863,-0.28856013,-0.45453277,-0.16706526,0.38516521,0.5606
 3795,-0.00055871,0.00065830,-0.00004250,0.00213000,-0.00146121,0.00086
 215,-0.00072824,0.00018203,-0.00049012,-0.00166112,0.00052323,-0.00038
 874,0.00159732,0.00116776,-0.00036029,0.00234893,-0.00801460,-0.009912
 82,-0.03294060,0.02804065,-0.06402901,-0.20504851,0.00491187,-0.164490
 76,0.05220673,-0.00485605,0.00588136,0.19152468,0.00046035,-0.00016077
 ,0.00021881,-0.00179180,0.00082501,-0.00112886,0.00078709,-0.00003115,
 0.00072559,0.00226433,-0.00023179,0.00050884,-0.00212079,-0.00140001,0
 .00215780,0.00237314,-0.00277414,-0.00166807,0.02624547,0.01923725,0.0
 3210635,-0.00203675,-0.15396490,-0.08060620,-0.00532830,0.00923993,-0.
 08671762,-0.02858925,0.13322878,-0.00017688,0.00081370,0.00048287,0.00
 042247,-0.00105299,-0.00062384,0.00018525,0.00025726,0.00049177,0.0007
 6154,-0.00001712,0.00124514,-0.00101620,0.00433928,-0.00186746,0.00220
 947,-0.01812891,-0.01818090,-0.06319418,0.03233420,-0.02511018,-0.1798
 6392,-0.06473388,-0.62486865,0.00556458,-0.08549055,-0.13676047,0.2351
 8028,0.12610142,0.79573632,-0.00213879,-0.00040641,-0.00099098,0.00538
 639,-0.00035020,0.00341484,-0.00193244,-0.00021327,-0.00189433,-0.0020
 7199,-0.00132209,0.00095890,0.00477192,-0.03488696,0.02821591,-0.13854
 063,0.01794166,-0.01768891,0.00899397,0.01185956,-0.00928583,-0.007024
 29,0.00412565,-0.00448057,0.00154441,-0.00126984,0.00023798,0.00167025
 ,0.00076707,0.00272658,0.44730657,-0.00101720,0.00199500,-0.00018854,0
 .00482892,-0.00356282,0.00109623,-0.00125425,0.00058059,-0.00065519,-0
 .00190894,0.00097112,0.00052507,-0.00177151,-0.01872118,0.01716109,0.0
 3256452,-0.16259520,0.09817911,0.03807298,-0.07387434,0.01225964,-0.03
 011316,0.00276119,-0.00889931,0.00913555,-0.00584910,-0.00292640,0.006
 60643,-0.00119924,0.00521791,0.03618551,0.43880163,0.00096216,-0.00008
 939,0.00081636,-0.00268920,0.00057906,-0.00253703,0.00130641,0.0000501
 9,0.00145001,0.00054937,-0.00133297,0.00213531,-0.00139883,0.01467263,
 -0.01283195,-0.03891216,0.08487985,-0.15553164,0.00057586,-0.00836338,
 0.02119502,0.00118806,-0.00472132,-0.00511574,-0.00086613,0.00199449,0
 .00175611,-0.00196562,0.00358157,0.00343061,0.00294127,-0.22512300,0.2
 4900719,0.00224720,0.00160438,0.00104867,-0.00755745,-0.00166696,-0.00
 409364,0.00255847,0.00065254,0.00244157,0.00255126,0.00079310,-0.00069
 794,-0.00632720,-0.00092282,-0.00340236,0.02963155,-0.06428406,0.02815
 868,-0.02141136,0.02075842,0.00431461,0.02513526,-0.00062028,0.0069026
 5,-0.00681042,0.00417982,0.00156732,-0.00895589,-0.00012352,-0.0056846
 8,-0.20541267,0.00215879,-0.01380839,0.88826838,0.00240930,-0.00231218
 ,0.00064099,-0.00914541,0.00562592,-0.00405745,0.00282826,-0.00086948,
 0.00243651,0.00780092,-0.00120515,0.00192609,-0.00461909,-0.00501424,0
 .00363096,-0.04783119,-0.04169450,0.01636156,-0.00267655,0.01025178,-0
 .00334983,0.01048669,-0.01417489,0.00047852,-0.00353897,0.00466890,0.0
 0231798,-0.00247239,0.00323999,-0.00044129,0.01459259,-0.13951987,0.03
 605363,-0.18849909,0.95846717,-0.00130820,0.00114686,-0.00072088,0.005
 99799,-0.00326315,0.00340388,-0.00197525,0.00040935,-0.00205876,-0.005
 15971,0.00003523,-0.00101964,0.00069336,0.00693030,-0.00330194,0.03843
 695,0.01629114,-0.01069071,-0.00082134,-0.00705380,0.00084702,-0.00295
 952,0.00851315,0.00547745,0.00191031,-0.00278256,-0.00296894,-0.000093
 33,-0.00305791,-0.00268094,-0.02282522,0.04010233,-0.11120287,0.193025
 51,-0.46297030,0.67897629,-0.00101416,-0.00118315,-0.00039314,0.003229
 53,0.00164959,0.00166004,-0.00099285,-0.00044068,-0.00100785,-0.001127
 87,-0.00087345,0.00102774,0.00205495,0.00169014,-0.00185967,-0.0116217
 7,0.02311065,-0.00732372,0.00730613,-0.00735900,-0.00158574,-0.0100879
 2,-0.00070013,-0.00373075,0.00250607,-0.00130050,-0.00026044,0.0041005
 2,0.00104721,0.00270216,-0.10966665,-0.01226461,-0.00710347,-0.5351270
 9,0.15715034,-0.15702962,0.65758550,-0.00042478,0.00103104,-0.00006768
 ,0.00181688,-0.00233151,0.00082371,-0.00065643,0.00040770,-0.00053878,
 -0.00267033,0.00063372,-0.00108832,0.00120574,0.00074099,-0.00146523,0
 .00318389,-0.00484964,0.00185147,-0.00514623,-0.00318295,0.00256095,-0
 .00041907,0.00613801,0.00113737,0.00023208,-0.00106389,-0.00064415,-0.
 00101552,-0.00215822,-0.00077453,-0.01595567,0.03562413,-0.00349763,0.
 17609451,-0.23306150,0.09974670,-0.23417804,0.25357467,0.00016209,-0.0
 0080529,0.00007923,-0.00115576,0.00190813,-0.00058566,0.00047671,-0.00
 032213,0.00042968,0.00232829,-0.00034158,0.00089930,-0.00078892,-0.000
 88903,0.00152996,-0.00022889,0.00452905,-0.00636021,0.00081020,-0.0015
 6916,0.00079991,-0.00129683,-0.00241636,-0.00493437,-0.00036527,0.0008
 4506,0.00162025,0.00130088,0.00170227,0.00205173,-0.00298437,-0.002621
 81,0.03293765,-0.17235858,0.09654717,-0.20767925,0.23354937,-0.1725300
 5,0.19499939,-0.00044499,-0.00044259,-0.00022522,0.00138338,0.00052216
 ,0.00083847,-0.00054049,-0.00017226,-0.00051234,-0.00036916,0.00000917
 ,-0.00001505,0.00244000,-0.00094860,0.00115394,-0.01181460,0.01000462,
 -0.00336550,0.00445800,-0.00412920,-0.00113626,-0.00507586,0.00015399,
 -0.00178860,0.00130955,-0.00079366,-0.00020033,0.00184240,0.00018893,0
 .00120700,0.00219671,-0.07769997,0.05111862,-0.16492505,0.06080892,-0.
 04771759,-0.00271037,0.08124093,-0.06225574,0.17392188,-0.00102581,0.0
 0161605,-0.00028713,0.00428933,-0.00367689,0.00183143,-0.00141682,0.00
 058829,-0.00113918,-0.00372825,0.00116381,-0.00157316,0.00567662,-0.00
 143864,0.00154544,-0.00873926,0.01312345,-0.00121186,0.00161766,-0.003
 82939,-0.00051187,-0.00315275,0.00616057,0.00221907,0.00149428,-0.0021
 4527,-0.00161449,0.00014708,-0.00206034,-0.00098946,-0.04199425,-0.063
 61413,0.05855110,0.03571899,-0.55095913,0.30634619,0.07990998,-0.05074
 848,0.07632731,-0.06621424,0.65867059,0.00067109,-0.00079548,0.0003941
 4,-0.00288370,0.00207424,-0.00179556,0.00106189,-0.00028121,0.00106917
 ,0.00242240,-0.00065566,0.00109635,-0.00313958,0.00039086,-0.00092611,
 0.00392076,-0.00458699,0.00618497,-0.00083357,0.00414516,-0.00036992,0
 .00212581,-0.00474038,-0.00203683,-0.00112943,0.00153780,0.00139118,0.
 00016617,0.00157080,0.00100065,0.02597483,0.05416590,-0.00960044,-0.02
 893499,0.31038077,-0.34385079,-0.06170036,0.07551178,-0.01784257,0.061
 03524,-0.43958902,0.36489020,0.00072955,-0.00091831,-0.00058470,-0.002
 29494,0.00362544,-0.00310512,0.00022388,-0.00057968,0.00052376,0.00190
 433,0.02505189,-0.01732379,-0.12669996,0.02460861,0.01022960,0.0035747
 7,-0.03950914,0.01860568,-0.00160321,-0.00040563,0.00131695,0.00380487
 ,-0.00410085,-0.00277840,-0.00129104,0.00203582,0.00155729,-0.00161042
 ,0.00105639,0.00158207,-0.01459310,-0.00760792,0.00647002,0.00740841,0
 .00393950,-0.00036106,-0.00216246,-0.00062075,0.00007843,-0.00203467,-
 0.00392390,0.00217294,0.40197660,0.00503225,-0.00116442,0.00280291,-0.
 01319176,0.00270637,-0.00151882,0.00556683,0.00009696,0.00354119,0.020
 80735,-0.00239236,0.02388625,0.04558959,-0.23718865,0.04432953,-0.0013
 4641,-0.01884587,0.00836048,-0.00073706,0.00256559,-0.00068555,0.00314
 669,-0.00333990,0.00003306,-0.00102525,0.00144525,0.00061182,-0.000887
 27,0.00114587,-0.00040274,-0.00648365,-0.00218338,0.00290809,0.0056126
 1,0.00284539,-0.00058302,-0.00211729,-0.00015961,-0.00013586,-0.001211
 49,-0.00165177,0.00086442,-0.04042486,0.45374418,-0.00353167,0.0066372
 2,0.00433679,0.02430777,-0.01521512,-0.00979054,-0.00909669,0.00170622
 ,-0.00286920,-0.04141939,0.04860497,-0.04319684,0.00838138,0.06426916,
 -0.09277941,0.00203589,0.02413715,-0.01151004,0.00232152,0.00100141,0.
 00007210,-0.00472616,0.00286676,-0.00117859,0.00101444,-0.00085822,-0.
 00005597,0.00128402,-0.00097805,0.00113704,0.00855684,0.00413089,-0.00
 245991,-0.00541506,-0.00224272,0.00010240,0.00193664,0.00028859,0.0001
 5862,0.00141640,0.00209454,-0.00110136,-0.11577163,-0.20374755,0.27939
 589,-0.00653536,0.00554357,0.00370540,0.02061883,-0.00852409,-0.007418
 76,-0.00721089,0.00105265,-0.00255341,-0.02322930,0.00771600,-0.014313
 52,0.02787873,-0.05299141,0.03527735,-0.00410433,0.00280174,0.00414041
 ,0.00236690,0.00063648,-0.00120152,-0.00553979,0.00413535,0.00488675,0
 .00161727,-0.00231212,-0.00214037,0.00143106,-0.00062006,-0.00237690,0
 .00658093,0.00532945,-0.00433380,-0.00429082,-0.00514653,0.00223675,0.
 00118138,0.00138682,-0.00070809,0.00111188,0.00340624,-0.00203559,-0.1
 8786518,0.02989146,0.03242470,0.80238451,-0.00098912,-0.00115133,-0.00
 498049,0.00648657,-0.00098628,0.01344591,-0.00345465,-0.00106576,-0.00
 408016,0.00255520,0.00507834,-0.00611394,-0.05599870,-0.00968785,0.029
 93090,-0.00138656,-0.00768100,0.00575137,0.00675410,-0.00316315,-0.002
 00508,-0.00745517,0.00729635,-0.00139166,0.00191876,-0.00296587,-0.000
 82137,0.00191099,-0.00191690,0.00127743,0.00062458,0.00033270,-0.00084
 505,-0.00351255,-0.00197478,0.00171182,0.00164790,0.00031167,-0.000260
 43,0.00074165,0.00073346,-0.00056849,0.04363034,-0.15413970,0.02543191
 ,-0.30770705,1.16698578,0.00386890,-0.00401939,-0.00071112,-0.01448016
 ,0.01028055,-0.00319304,0.00502525,-0.00125905,0.00316624,0.00935226,-
 0.00774218,0.00783988,0.01628723,0.03251293,-0.04094631,0.00515458,0.0
 0098200,-0.00285814,-0.00524497,0.00233274,0.00112253,0.00715198,-0.00
 574115,-0.00028420,-0.00187507,0.00240019,0.00097895,-0.00218191,0.001
 39344,-0.00030010,-0.00525631,-0.00369445,0.00344203,0.00536534,0.0038
 2033,-0.00145297,-0.00200607,-0.00075264,0.00025033,-0.00129284,-0.002
 33592,0.00131023,0.02450173,0.02626522,-0.11413073,-0.04866083,-0.3418
 0256,0.55634234,0.00131584,-0.00117167,-0.00093557,-0.00428126,0.00233
 020,0.00152423,0.00142991,-0.00030081,0.00048127,0.00494463,-0.0017348
 9,0.00314706,-0.01052496,0.00948554,-0.00310165,0.00193071,-0.00164762
 ,-0.00028381,-0.00032466,0.00008186,0.00011799,0.00093916,-0.00082974,
 -0.00121586,-0.00034680,0.00052157,0.00052506,-0.00025562,0.00010373,0
 .00064246,-0.00190041,-0.00130234,0.00097179,0.00114699,0.00119022,-0.
 00046862,-0.00030505,-0.00029633,0.00014395,-0.00029346,-0.00082778,0.
 00049199,0.00452066,-0.06996702,0.05272990,-0.15763224,0.06267976,-0.0
 1930702,0.15355836,0.00039617,0.00043769,0.00271753,-0.00418094,0.0005
 5337,-0.00659214,0.00219294,0.00054005,0.00225505,0.00134432,-0.002338
 19,0.00383193,-0.00489758,0.00910552,-0.00371326,0.00436475,-0.0022794
 4,-0.00099893,-0.00325544,0.00252454,0.00059871,0.00396052,-0.00415517
 ,0.00120616,-0.00112742,0.00166651,0.00040848,-0.00104360,0.00116609,-
 0.00089691,-0.00330833,-0.00144799,0.00135178,0.00330394,0.00151148,-0
 .00067711,-0.00134638,-0.00015526,0.00004996,-0.00078882,-0.00099098,0
 .00059676,-0.03530401,-0.04155667,0.05673029,0.03756550,-0.62625222,0.
 27898869,-0.08552633,0.77052222,-0.00088344,0.00044162,-0.00097092,0.0
 0397184,-0.00146338,0.00277579,-0.00168805,-0.00000583,-0.00141479,-0.
 00287484,0.00082090,-0.00234843,0.01107768,-0.00651829,0.00891435,-0.0
 0418020,0.00251225,0.00042407,0.00226533,-0.00163805,-0.00030891,-0.00
 303932,0.00255929,-0.00087329,0.00082601,-0.00098909,-0.00020283,0.000
 86765,-0.00071136,0.00065489,0.00327350,0.00170273,-0.00143905,-0.0028
 2253,-0.00155363,0.00049687,0.00106360,0.00022258,-0.00003560,0.000683
 50,0.00105304,-0.00059484,0.03227080,0.07423146,-0.03398179,-0.0055620
 8,0.26561288,-0.27585087,-0.00209265,-0.38292663,0.27340213,0.00285068
 ,-0.00217095,-0.00259364,-0.00795168,0.00328459,0.00423825,0.00267936,
 -0.00045036,0.00072139,0.00879809,-0.00192493,0.00426667,-0.01313190,0
 .01610223,-0.01421114,0.00207233,0.00210961,-0.00130947,-0.00126570,-0
 .00098269,0.00072305,0.00227037,-0.00130904,-0.00269308,-0.00059423,0.
 00086151,0.00097388,-0.00061237,0.00003578,0.00135619,-0.00200683,-0.0
 0206200,0.00158964,0.00123553,0.00213836,-0.00099386,-0.00014604,-0.00
 065269,0.00034503,-0.00030655,-0.00136757,0.00083277,-0.08961530,0.022
 66063,0.04646585,-0.46918794,0.25186083,0.02338047,0.00620310,0.086922
 13,-0.03282100,0.56136881,-0.00106132,0.00159683,0.00387750,0.00031082
 ,-0.00328240,-0.00707480,0.00059948,0.00107195,0.00150425,-0.00428839,
 0.00065793,-0.00032016,0.00299723,-0.01160396,0.00507603,0.00112153,0.
 00169494,-0.00033026,-0.00262383,0.00208003,0.00067090,0.00154018,-0.0
 0198999,0.00209095,-0.00048644,0.00070911,-0.00017067,-0.00036356,0.00
 062667,-0.00115017,0.00004584,0.00047076,-0.00024015,0.00101042,0.0000
 5369,-0.00026393,-0.00057651,0.00012159,-0.00003935,-0.00019896,0.0001
 2704,-0.00003011,0.01782588,0.03227374,-0.00982522,0.27181327,-0.36734
 973,0.01144535,0.08811751,-0.11014747,0.04660719,-0.37302779,0.4502254
 7,-0.00057492,0.00122278,-0.00045321,0.00354937,-0.00402236,0.00234868
 ,-0.00084696,0.00049643,-0.00068896,0.00196620,0.00378200,-0.00453148,
 0.00009860,-0.00376288,0.00190465,-0.00142667,-0.00118135,0.00055863,0
 .00165027,-0.00071660,-0.00040913,-0.00183226,0.00156865,0.00003222,0.
 00050261,-0.00067881,-0.00027049,0.00056847,-0.00034543,0.00008171,0.0
 0111287,0.00085661,-0.00062721,-0.00139175,-0.00101531,0.00045413,0.00
 053435,0.00020988,-0.00006097,0.00031460,0.00055636,-0.00031650,0.0478
 5865,-0.01228729,0.01623602,0.01352850,0.02188342,-0.13933051,-0.03391
 154,0.04627477,0.03264294,-0.03378087,-0.05332035,0.09456611,-0.005745
 38,0.00535192,-0.00115629,0.00394320,-0.00578873,-0.00201052,0.0004531
 6,0.00158166,0.00130073,0.00401051,-0.02165936,-0.02631247,-0.10901481
 ,0.09027107,0.07274345,-0.00594404,0.02481895,0.01715673,-0.00789803,0
 .00180978,0.00143298,0.00197667,-0.00173458,0.00287442,-0.00080610,0.0
 0106336,-0.00011107,-0.00040278,-0.00001796,-0.00097947,0.00136519,0.0
 0050260,-0.00096350,-0.00094682,-0.00076051,-0.00014769,0.00052247,-0.
 00011212,0.00008066,0.00012712,0.00019162,0.00001161,0.00394272,-0.001
 97783,-0.00235377,0.00137351,-0.00007337,-0.00107804,-0.00024656,0.000
 55900,-0.00002568,-0.00322967,-0.00256098,0.00221751,0.11582385,0.0062
 1953,-0.00253655,0.00520748,0.00145516,-0.00189154,-0.00113397,-0.0006
 3706,-0.00018037,-0.00065192,-0.00221628,0.00102309,-0.00784722,0.0747
 0786,-0.24261808,-0.13527001,0.00138000,0.01004774,0.00350630,-0.00496
 491,0.00214783,0.00155009,0.00151781,-0.00175142,0.00165673,-0.0006767
 1,0.00098503,0.00012004,-0.00040187,0.00027491,-0.00058507,-0.00098208
 ,-0.00035956,0.00089647,0.00064512,0.00136650,-0.00057617,-0.00011556,
 -0.00032232,0.00015311,-0.00007801,-0.00058566,0.00034554,0.01195780,-
 0.03417258,-0.00483519,0.00622430,-0.00268918,-0.00301919,-0.00096349,
 0.00142098,-0.00001369,-0.00219112,0.00287672,0.00047278,-0.09150034,0
 .26679241,-0.00060802,0.00451000,0.00284482,0.00350633,-0.00842233,-0.
 00261320,0.00034109,0.00176271,0.00167423,-0.00023775,-0.02465247,-0.0
 2767305,0.06302219,-0.13827152,-0.16668836,0.00278390,-0.00684273,-0.0
 0267846,0.00138733,-0.00025611,0.00070726,-0.00007029,0.00034279,-0.00
 088800,0.00009096,-0.00013353,0.00009696,-0.00001931,0.00002889,0.0003
 5166,-0.00042272,-0.00051064,0.00039676,0.00073551,0.00056228,-0.00004
 156,-0.00036474,0.00000616,-0.00010544,-0.00012950,-0.00018754,0.00007
 688,-0.00800997,0.03085397,0.01186927,-0.00437581,-0.00125113,0.003563
 37,0.00046277,0.00027701,-0.00091138,0.00343112,0.00127326,-0.00187423
 ,-0.06188015,0.14021965,0.18136304,-0.00004803,0.00084680,0.00048953,0
 .00112066,-0.00328231,-0.00014029,-0.00075421,0.00062017,-0.00055645,-
 0.00718993,0.00095193,0.00018449,-0.01444090,-0.00352426,-0.02560259,-
 0.18736808,-0.02945345,-0.16054312,0.01071915,0.00801615,0.01805262,0.
 00326468,-0.00077788,0.00243320,0.00001307,-0.00043390,-0.00142518,-0.
 00607762,0.00529897,-0.00124779,0.00547148,0.00161713,0.00436791,0.001
 58172,0.00134464,-0.00043985,-0.00352431,-0.00301289,0.00286684,-0.000
 27573,-0.00006119,-0.00023027,0.00168451,0.00106246,-0.00056098,-0.000
 94914,-0.00023352,0.00129551,0.00012164,0.00016958,-0.00031014,0.00056
 994,-0.00019437,-0.00013703,0.00069581,0.00061981,0.00035705,0.1953853
 0,0.00000479,0.00040829,0.00008795,0.00022393,-0.00128621,0.00019843,-
 0.00027727,0.00020571,-0.00025340,-0.00201063,0.00087884,-0.00014604,-
 0.00216055,0.00187335,-0.00569172,-0.02739748,-0.06714067,-0.03307076,
 -0.01223155,-0.01168365,-0.03243946,-0.00484500,0.00182148,-0.00683661
 ,0.00020803,0.00106733,0.00261084,0.00495699,-0.00308705,0.00432241,0.
 02103029,-0.00861030,0.03869401,0.00709665,0.00275491,-0.00000514,-0.0
 0375051,-0.00055015,-0.00013100,-0.00099256,-0.00048257,-0.00033669,-0
 .00033662,-0.00002845,-0.00019704,-0.00020157,0.00028545,-0.00005491,0
 .00005762,-0.00012507,0.00005602,0.00016346,-0.00021293,0.00000668,0.0
 0003583,0.00017206,0.00069128,0.02042615,0.08373963,0.00032367,-0.0007
 5455,-0.00013650,-0.00157478,0.00277232,-0.00049710,0.00095050,-0.0004
 9151,0.00082433,0.00653934,-0.00015512,0.00126797,0.00307425,0.0005418
 7,0.01399283,-0.14207035,-0.03258767,-0.26381354,-0.00750061,-0.015784
 23,-0.02167527,-0.00514179,0.00104425,-0.00564769,0.00055598,-0.000097
 73,0.00086654,-0.00213656,0.00511770,0.00372813,-0.01158427,0.00922185
 ,-0.01522122,-0.00494993,0.00047373,-0.00208880,0.00189168,-0.00100018
 ,0.00184803,0.00087120,-0.00108485,0.00102116,0.00076675,0.00067242,-0
 .00025375,-0.00051919,-0.00092528,0.00104209,0.00007823,0.00051787,-0.
 00037835,0.00007876,0.00021972,-0.00026241,-0.00079944,-0.00019578,0.0
 0052944,0.16114655,0.03249516,0.28485412||0.00000398,-0.00001758,-0.00
 000674,-0.00002656,0.00003486,-0.00000362,0.00001304,-0.00000673,0.000
 00922,0.00002310,-0.00001059,-0.00000084,-0.00001359,-0.00001192,0.000
 00840,0.00001173,0.00001080,-0.00001114,-0.00002374,0.00000738,-0.0000
 0369,0.00003292,-0.00001962,0.00002270,-0.00001200,0.00001204,0.000001
 12,-0.00000883,-0.00000013,-0.00001687,-0.00003710,-0.00001944,-0.0000
 0439,0.00005842,0.00002645,0.00001233,-0.00001471,0.00000298,-0.000011
 46,-0.00001968,-0.00003403,0.00001397,0.00003656,0.00000495,-0.0000167
 9,-0.00007265,-0.00001959,-0.00000657,0.00002556,0.00003455,-0.0000113
 2,0.00002149,-0.00000318,0.00001298,0.00000953,0.00000570,0.00000434,-
 0.00000746,0.00000309,0.00000836|||@
 The archive entry for this job was punched.


 A ROPE OVER THE TOP OF A FENCE HAS THE SAME LENGTH ON EACH SIDE.
 WEIGHS 1/3 POUND PER FOOT.  ON ONE END HANGS A MONKEY HOLDING A
 BANANA, AND ON THE OTHER END A WEIGHT EQUAL TO THE WEIGHT
 OF THE MONKEY.  THE BANANA WEIGHS TWO OUNCES PER INCH.
 THE ROPE IS AS LONG AS THE AGE OF THE MONKEY, 
 AND THE WEIGHT OF THE MONKEY (IN OUNCES) IS AS MUCH
 AS THE AGE OF THE MONKEY'S MOTHER.  THE COMBINED AGES OF MONKEY
 AND MOTHER ARE THIRTY YEARS.  HALF THE WEIGHT OF THE MONKEY,
  PLUS THE WEIGHT OF THE BANANA, IS ONE FOURTH AS MUCH AS THE WEIGHT
 OF THE WEIGHT AND THE ROPE.
 THE MONKEY'S MOTHER IS HALF AS OLD AS THE MONKEY WILL BE
 WHEN IT IS 3 TIMES AS OLD AS ITS MOTHER WAS WHEN
 SHE WAS HALF AS OLD AS THE MONKEY WILL BE WHEN IT IS
 AS OLD AS ITS MOTHER WILL BE WHEN SHE IS 4 TIMES AS
 OLD AS THE MONKEY WAS WHEN IT WAS TWICE AS OLD AS 
 ITS MOTHER WAS WHEN SHE WAS ONE THIRD AS OLD AS THE
 MONKEY WAS WHEN IT WAS AS OLD AS ITS MOTHER WAS WHEN 
 SHE WAS 3 TIMES AS OLD AS THE MONKEY WAS WHEN IT WAS AS OLD AS ITS
 MOTHER WAS WHEN SHE WAS 3 TIMES AS OLD AS THE MONKEY 
 WAS WHEN IT WAS ONE FOURTH WAS OLD AS IT IS NOW.

 HOW LONG IS THE BANANA?
 Job cpu time:       0 days  0 hours  1 minutes 10.0 seconds.
 Elapsed time:       0 days  0 hours  1 minutes  8.4 seconds.
 File lengths (MBytes):  RWF=    195 Int=      0 D2E=      0 Chk=      7 Scr=      1
 Normal termination of Gaussian 16 at Tue Jun 11 17:22:14 2024.
