 Entering Link 1 = C:\G16W\l1.exe PID=     20860.
  
 Copyright (c) 1988-2019, Gaussian, Inc.  All Rights Reserved.
  
 This is part of the Gaussian(R) 16 program.  It is based on
 the Gaussian(R) 09 system (copyright 2009, Gaussian, Inc.),
 the Gaussian(R) 03 system (copyright 2003, Gaussian, Inc.),
 the Gaussian(R) 98 system (copyright 1998, Gaussian, Inc.),
 the Gaussian(R) 94 system (copyright 1995, Gaussian, Inc.),
 the Gaussian 92(TM) system (copyright 1992, Gaussian, Inc.),
 the Gaussian 90(TM) system (copyright 1990, Gaussian, Inc.),
 the Gaussian 88(TM) system (copyright 1988, Gaussian, Inc.),
 the Gaussian 86(TM) system (copyright 1986, Carnegie Mellon
 University), and the Gaussian 82(TM) system (copyright 1983,
 Carnegie Mellon University). Gaussian is a federally registered
 trademark of Gaussian, Inc.
  
 This software contains proprietary and confidential information,
 including trade secrets, belonging to Gaussian, Inc.
  
 This software is provided under written license and may be
 used, copied, transmitted, or stored only in accord with that
 written license.
  
 The following legend is applicable only to US Government
 contracts under FAR:
  
                    RESTRICTED RIGHTS LEGEND
  
 Use, reproduction and disclosure by the US Government is
 subject to restrictions as set forth in subparagraphs (a)
 and (c) of the Commercial Computer Software - Restricted
 Rights clause in FAR 52.227-19.
  
 Gaussian, Inc.
 340 Quinnipiac St., Bldg. 40, Wallingford CT 06492
  
  
 ---------------------------------------------------------------
 Warning -- This program may not be used in any manner that
 competes with the business of Gaussian, Inc. or will provide
 assistance to any competitor of Gaussian, Inc.  The licensee
 of this program is prohibited from giving any competitor of
 Gaussian, Inc. access to this program.  By using this program,
 the user acknowledges that Gaussian, Inc. is engaged in the
 business of creating and licensing software in the field of
 computational chemistry and represents and warrants to the
 licensee that it is not a competitor of Gaussian, Inc. and that
 it will not use this program in any manner prohibited above.
 ---------------------------------------------------------------
  

 Cite this work as:
 Gaussian 16, Revision C.01,
 M. J. Frisch, G. W. Trucks, H. B. Schlegel, G. E. Scuseria, 
 M. A. Robb, J. R. Cheeseman, G. Scalmani, V. Barone, 
 G. A. Petersson, H. Nakatsuji, X. Li, M. Caricato, A. V. Marenich, 
 J. Bloino, B. G. Janesko, R. Gomperts, B. Mennucci, H. P. Hratchian, 
 J. V. Ortiz, A. F. Izmaylov, J. L. Sonnenberg, D. Williams-Young, 
 F. Ding, F. Lipparini, F. Egidi, J. Goings, B. Peng, A. Petrone, 
 T. Henderson, D. Ranasinghe, V. G. Zakrzewski, J. Gao, N. Rega, 
 G. Zheng, W. Liang, M. Hada, M. Ehara, K. Toyota, R. Fukuda, 
 J. Hasegawa, M. Ishida, T. Nakajima, Y. Honda, O. Kitao, H. Nakai, 
 T. Vreven, K. Throssell, J. A. Montgomery, Jr., J. E. Peralta, 
 F. Ogliaro, M. J. Bearpark, J. J. Heyd, E. N. Brothers, K. N. Kudin, 
 V. N. Staroverov, T. A. Keith, R. Kobayashi, J. Normand, 
 K. Raghavachari, A. P. Rendell, J. C. Burant, S. S. Iyengar, 
 J. Tomasi, M. Cossi, J. M. Millam, M. Klene, C. Adamo, R. Cammi, 
 J. W. Ochterski, R. L. Martin, K. Morokuma, O. Farkas, 
 J. B. Foresman, and D. J. Fox, Gaussian, Inc., Wallingford CT, 2019.
 
 ******************************************
 Gaussian 16:  EM64W-G16RevC.01 30-May-2019
                11-Jun-2024 
 ******************************************
 %nprocshared=24
 Will use up to   24 processors via shared memory.
 %mem=120GB
 ----------------------
 # HF/6-31G(d) Opt Freq
 ----------------------
 1/18=20,19=15,38=1/1,3;
 2/9=110,12=2,17=6,18=5,40=1/2;
 3/5=1,6=6,7=1,11=9,25=1,30=1,71=1/1,2,3;
 4//1;
 5/5=2,38=5/2;
 6/7=2,8=2,9=2,10=2,28=1/1;
 7//1,2,3,16;
 1/18=20,19=15/3(2);
 2/9=110/2;
 99//99;
 2/9=110/2;
 3/5=1,6=6,7=1,11=9,25=1,30=1,71=1/1,2,3;
 4/5=5,16=3,69=1/1;
 5/5=2,38=5/2;
 7//1,2,3,16;
 1/18=20,19=15/3(-5);
 2/9=110/2;
 6/7=2,8=2,9=2,10=2,19=2,28=1/1;
 99/9=1/99;
 ----------------------------------------------------------------------
 O=[N+1]([O-1])OC(C(O[N+1]([O-1])[O-1])O[N+1]([O-1])=O)O[N+1]([O-1])=O 
 geometry optimization
 ----------------------------------------------------------------------
 Symbolic Z-matrix:
 Charge =  0 Multiplicity = 1
 O                     2.96404   1.7317   -2.23833 
 N                     2.63078   0.87759  -1.42309 
 O                     3.29199  -0.00662  -0.88029 
 O                     1.25934   0.93995  -1.09969 
 C                     0.86651  -0.07698  -0.15983 
 C                    -0.69403  -0.14273  -0.21399 
 O                    -1.19302   1.17151   0.03766 
 N                    -2.05044   1.12227   1.21034 
 O                    -2.73469   2.36209   1.25409 
 O                    -1.18376   1.08073   2.33724 
 O                    -1.02017  -0.58631  -1.53843 
 N                    -2.35307  -1.02732  -1.65161 
 O                    -2.61912  -1.45425  -2.76951 
 O                    -3.05315  -0.92982  -0.64468 
 O                     1.3373    0.25653   1.14435 
 N                     1.42766  -0.86624   1.99463 
 O                     2.00248  -0.62933   3.05102 
 O                     0.90616  -1.9044    1.58439 
 H                     1.25114  -1.04232  -0.52296 
 H                    -1.03595  -0.87605   0.5287 
 

 GradGradGradGradGradGradGradGradGradGradGradGradGradGradGradGradGradGrad
 Berny optimization.
 Initialization pass.
                           ----------------------------
                           !    Initial Parameters    !
                           ! (Angstroms and Degrees)  !
 --------------------------                            --------------------------
 ! Name  Definition              Value          Derivative Info.                !
 --------------------------------------------------------------------------------
 ! R1    R(1,2)                  1.2269         estimate D2E/DX2                !
 ! R2    R(2,3)                  1.2303         estimate D2E/DX2                !
 ! R3    R(2,4)                  1.4104         estimate D2E/DX2                !
 ! R4    R(4,5)                  1.4394         estimate D2E/DX2                !
 ! R5    R(5,6)                  1.5629         estimate D2E/DX2                !
 ! R6    R(5,15)                 1.4261         estimate D2E/DX2                !
 ! R7    R(5,19)                 1.1008         estimate D2E/DX2                !
 ! R8    R(6,7)                  1.4281         estimate D2E/DX2                !
 ! R9    R(6,11)                 1.4343         estimate D2E/DX2                !
 ! R10   R(6,20)                 1.0983         estimate D2E/DX2                !
 ! R11   R(7,8)                  1.4535         estimate D2E/DX2                !
 ! R12   R(8,9)                  1.4168         estimate D2E/DX2                !
 ! R13   R(8,10)                 1.4222         estimate D2E/DX2                !
 ! R14   R(11,12)                1.4085         estimate D2E/DX2                !
 ! R15   R(12,13)                1.2259         estimate D2E/DX2                !
 ! R16   R(12,14)                1.2303         estimate D2E/DX2                !
 ! R17   R(15,16)                1.4113         estimate D2E/DX2                !
 ! R18   R(16,17)                1.2258         estimate D2E/DX2                !
 ! R19   R(16,18)                1.2321         estimate D2E/DX2                !
 ! A1    A(1,2,3)              130.3548         estimate D2E/DX2                !
 ! A2    A(1,2,4)              112.6877         estimate D2E/DX2                !
 ! A3    A(3,2,4)              116.9485         estimate D2E/DX2                !
 ! A4    A(2,4,5)              112.5724         estimate D2E/DX2                !
 ! A5    A(4,5,6)              106.2366         estimate D2E/DX2                !
 ! A6    A(4,5,15)             109.9879         estimate D2E/DX2                !
 ! A7    A(4,5,19)             107.9881         estimate D2E/DX2                !
 ! A8    A(6,5,15)             111.7878         estimate D2E/DX2                !
 ! A9    A(6,5,19)             107.492          estimate D2E/DX2                !
 ! A10   A(15,5,19)            113.0429         estimate D2E/DX2                !
 ! A11   A(5,6,7)              107.7017         estimate D2E/DX2                !
 ! A12   A(5,6,11)             105.7869         estimate D2E/DX2                !
 ! A13   A(5,6,20)             108.3919         estimate D2E/DX2                !
 ! A14   A(7,6,11)             111.5836         estimate D2E/DX2                !
 ! A15   A(7,6,20)             112.7369         estimate D2E/DX2                !
 ! A16   A(11,6,20)            110.3128         estimate D2E/DX2                !
 ! A17   A(6,7,8)              108.4875         estimate D2E/DX2                !
 ! A18   A(7,8,9)              106.2699         estimate D2E/DX2                !
 ! A19   A(7,8,10)             106.3064         estimate D2E/DX2                !
 ! A20   A(9,8,10)             107.1813         estimate D2E/DX2                !
 ! A21   A(6,11,12)            112.7185         estimate D2E/DX2                !
 ! A22   A(11,12,13)           112.8114         estimate D2E/DX2                !
 ! A23   A(11,12,14)           116.6104         estimate D2E/DX2                !
 ! A24   A(13,12,14)           130.5781         estimate D2E/DX2                !
 ! A25   A(5,15,16)            112.7094         estimate D2E/DX2                !
 ! A26   A(15,16,17)           113.2964         estimate D2E/DX2                !
 ! A27   A(15,16,18)           116.2726         estimate D2E/DX2                !
 ! A28   A(17,16,18)           130.4135         estimate D2E/DX2                !
 ! D1    D(1,2,3,4)           -178.8141         estimate D2E/DX2                !
 ! D2    D(1,2,4,5)            179.0443         estimate D2E/DX2                !
 ! D3    D(3,2,4,5)              0.0238         estimate D2E/DX2                !
 ! D4    D(2,4,5,6)           -164.368          estimate D2E/DX2                !
 ! D5    D(2,4,5,15)            74.4811         estimate D2E/DX2                !
 ! D6    D(2,4,5,19)           -49.2995         estimate D2E/DX2                !
 ! D7    D(4,5,6,7)            -54.9894         estimate D2E/DX2                !
 ! D8    D(4,5,6,11)            64.4508         estimate D2E/DX2                !
 ! D9    D(4,5,6,20)          -177.2434         estimate D2E/DX2                !
 ! D10   D(15,5,6,7)            64.9985         estimate D2E/DX2                !
 ! D11   D(15,5,6,11)         -175.5612         estimate D2E/DX2                !
 ! D12   D(15,5,6,20)          -57.2555         estimate D2E/DX2                !
 ! D13   D(19,5,6,7)          -170.3947         estimate D2E/DX2                !
 ! D14   D(19,5,6,11)          -50.9544         estimate D2E/DX2                !
 ! D15   D(19,5,6,20)           67.3513         estimate D2E/DX2                !
 ! D16   D(4,5,15,16)         -158.4004         estimate D2E/DX2                !
 ! D17   D(6,5,15,16)           83.8371         estimate D2E/DX2                !
 ! D18   D(19,5,15,16)         -37.6151         estimate D2E/DX2                !
 ! D19   D(5,6,7,8)           -121.0535         estimate D2E/DX2                !
 ! D20   D(11,6,7,8)           123.2643         estimate D2E/DX2                !
 ! D21   D(20,6,7,8)            -1.5249         estimate D2E/DX2                !
 ! D22   D(5,6,11,12)          164.6107         estimate D2E/DX2                !
 ! D23   D(7,6,11,12)          -78.5396         estimate D2E/DX2                !
 ! D24   D(20,6,11,12)          47.5921         estimate D2E/DX2                !
 ! D25   D(6,7,8,9)           -168.044          estimate D2E/DX2                !
 ! D26   D(6,7,8,10)            78.0024         estimate D2E/DX2                !
 ! D27   D(7,8,9,10)          -113.3526         estimate D2E/DX2                !
 ! D28   D(6,11,12,13)        -177.3944         estimate D2E/DX2                !
 ! D29   D(6,11,12,14)           2.5661         estimate D2E/DX2                !
 ! D30   D(11,12,13,14)        179.9535         estimate D2E/DX2                !
 ! D31   D(5,15,16,17)         170.4288         estimate D2E/DX2                !
 ! D32   D(5,15,16,18)         -10.9332         estimate D2E/DX2                !
 ! D33   D(15,16,17,18)        178.3959         estimate D2E/DX2                !
 --------------------------------------------------------------------------------
 Trust Radius=3.00D-01 FncErr=1.00D-07 GrdErr=1.00D-07 EigMax=2.50D+02 EigMin=1.00D-04
 Number of steps in this run=     90 maximum allowed number of steps=    120.
 GradGradGradGradGradGradGradGradGradGradGradGradGradGradGradGradGradGrad

                          Input orientation:                          
 ---------------------------------------------------------------------
 Center     Atomic      Atomic             Coordinates (Angstroms)
 Number     Number       Type             X           Y           Z
 ---------------------------------------------------------------------
      1          8           0        2.964040    1.731698   -2.238326
      2          7           0        2.630780    0.877586   -1.423092
      3          8           0        3.291987   -0.006622   -0.880290
      4          8           0        1.259336    0.939950   -1.099689
      5          6           0        0.866510   -0.076977   -0.159827
      6          6           0       -0.694028   -0.142732   -0.213993
      7          8           0       -1.193024    1.171510    0.037660
      8          7           0       -2.050438    1.122272    1.210336
      9          8           0       -2.734688    2.362088    1.254090
     10          8           0       -1.183764    1.080729    2.337235
     11          8           0       -1.020168   -0.586306   -1.538431
     12          7           0       -2.353068   -1.027315   -1.651611
     13          8           0       -2.619117   -1.454248   -2.769506
     14          8           0       -3.053147   -0.929818   -0.644684
     15          8           0        1.337302    0.256531    1.144347
     16          7           0        1.427656   -0.866243    1.994626
     17          8           0        2.002475   -0.629328    3.051022
     18          8           0        0.906164   -1.904404    1.584386
     19          1           0        1.251143   -1.042323   -0.522958
     20          1           0       -1.035953   -0.876048    0.528703
 ---------------------------------------------------------------------
                    Distance matrix (angstroms):
                    1          2          3          4          5
     1  O    0.000000
     2  N    1.226856   0.000000
     3  O    2.230150   1.230306   0.000000
     4  O    2.197584   1.410440   2.252955   0.000000
     5  C    3.462816   2.370587   2.531196   1.439373   0.000000
     6  C    4.581798   3.682027   4.043611   2.402558   1.562861
     7  O    4.772328   4.103861   4.727151   2.713163   2.416485
     8  N    6.116344   5.376674   5.846933   4.040305   3.438623
     9  O    6.713409   6.177321   6.818150   4.849224   4.573491
    10  O    6.209976   5.360231   5.618465   4.219124   3.432088
    11  O    4.662286   3.935188   4.400439   2.778144   2.391551
    12  N    6.018973   5.340376   5.788212   4.150206   3.673451
    13  O    6.450120   5.900144   6.372276   4.854159   4.566934
    14  O    6.769779   6.014953   6.416270   4.722347   4.040560
    15  O    4.032973   2.941180   2.826517   2.347092   1.426094
    16  N    5.198814   4.021101   3.532679   3.586845   2.362096
    17  O    5.871649   4.762695   4.183995   4.499256   3.450372
    18  O    5.662969   4.445075   3.920248   3.926746   2.526527
    19  H    3.683978   2.529761   2.316334   2.064483   1.100772
    20  H    5.518762   4.508843   4.633813   3.349307   2.175305
                    6          7          8          9         10
     6  C    0.000000
     7  O    1.428131   0.000000
     8  N    2.338546   1.453531   0.000000
     9  O    3.548758   2.296498   1.416777   0.000000
    10  O    2.871491   2.301384   1.422234   2.284830   0.000000
    11  O    1.434316   2.367247   3.396530   4.408035   4.222150
    12  N    2.366781   3.005690   3.592082   4.480713   4.660688
    13  O    3.457845   4.099820   4.775039   5.546810   5.879213
    14  O    2.523974   2.888118   2.942379   3.813581   4.053237
    15  O    2.476045   2.909380   3.497234   4.585467   2.908274
    16  N    3.146904   3.853585   4.082455   5.319363   3.275301
    17  O    4.262420   4.747061   4.783548   5.883728   3.685907
    18  O    2.982996   4.032393   4.247608   5.618527   3.720968
    19  H    2.165274   3.345042   4.311638   5.534868   4.314722
    20  H    1.098299   2.111465   2.342453   3.727923   2.668634
                   11         12         13         14         15
    11  O    0.000000
    12  N    1.408518   0.000000
    13  O    2.196704   1.225864   0.000000
    14  O    2.247173   1.230251   2.231206   0.000000
    15  O    3.669514   4.804631   5.822222   4.887136   0.000000
    16  N    4.307284   5.254985   6.278461   5.200730   1.411298
    17  O    5.495571   6.422143   7.477845   6.269598   2.205133
    18  O    3.898733   4.675848   5.620197   4.647011   2.247032
    19  H    2.529425   3.776827   4.493948   4.307480   2.115267
    20  H    2.087401   2.551754   3.703905   2.334267   2.700757
                   16         17         18         19         20
    16  N    0.000000
    17  O    1.225773   0.000000
    18  O    1.232083   2.231309   0.000000
    19  H    2.529900   3.675378   2.302844   0.000000
    20  H    2.866774   3.956641   2.437991   2.522786   0.000000
 Stoichiometry    C2H2N4O12
 Framework group  C1[X(C2H2N4O12)]
 Deg. of freedom    54
 Full point group                 C1      NOp   1
 Largest Abelian subgroup         C1      NOp   1
 Largest concise Abelian subgroup C1      NOp   1
                         Standard orientation:                         
 ---------------------------------------------------------------------
 Center     Atomic      Atomic             Coordinates (Angstroms)
 Number     Number       Type             X           Y           Z
 ---------------------------------------------------------------------
      1          8           0       -2.787911   -2.486316    1.608829
      2          7           0       -2.501180   -1.684874    0.725284
      3          8           0       -3.167580   -1.272554   -0.223166
      4          8           0       -1.181951   -1.198973    0.838753
      5          6           0       -0.840955   -0.275739   -0.211559
      6          6           0        0.716635   -0.148827   -0.193163
      7          8           0        1.105821    0.230713    1.127459
      8          7           0        1.824282    1.491991    1.051679
      9          8           0        2.425400    1.683227    2.320277
     10          8           0        0.837834    2.504816    0.897226
     11          8           0        1.218072   -1.447568   -0.538264
     12          7           0        2.578616   -1.426346   -0.902124
     13          8           0        2.995769   -2.526484   -1.246251
     14          8           0        3.151520   -0.340041   -0.829729
     15          8           0       -1.477084    0.979881    0.017576
     16          7           0       -1.598771    1.751536   -1.157797
     17          8           0       -2.303962    2.743971   -1.015320
     18          8           0       -0.973884    1.350132   -2.140862
     19          1           0       -1.124303   -0.733434   -1.171730
     20          1           0        1.013236    0.588251   -0.951455
 ---------------------------------------------------------------------
 Rotational constants (GHZ):           0.4592323           0.3297614           0.2639944
 Standard basis: 6-31G(d) (6D, 7F)
 There are   274 symmetry adapted cartesian basis functions of A   symmetry.
 There are   274 symmetry adapted basis functions of A   symmetry.
   274 basis functions,   512 primitive gaussians,   274 cartesian basis functions
    69 alpha electrons       69 beta electrons
       nuclear repulsion energy      1507.1891559782 Hartrees.
 NAtoms=   20 NActive=   20 NUniq=   20 SFac= 1.00D+00 NAtFMM=   60 NAOKFM=F Big=F
 Integral buffers will be    131072 words long.
 Raffenetti 1 integral format.
 Two-electron integral symmetry is turned on.
 One-electron integrals computed using PRISM.
 NBasis=   274 RedAO= T EigKep=  2.04D-03  NBF=   274
 NBsUse=   274 1.00D-06 EigRej= -1.00D+00 NBFU=   274
 ExpMin= 1.61D-01 ExpMax= 5.48D+03 ExpMxC= 8.25D+02 IAcc=3 IRadAn=         5 AccDes= 0.00D+00
 Harris functional with IExCor=  205 and IRadAn=       5 diagonalized for initial guess.
 HarFok:  IExCor=  205 AccDes= 0.00D+00 IRadAn=         5 IDoV= 1 UseB2=F ITyADJ=14
 ICtDFT=  3500011 ScaDFX=  1.000000  1.000000  1.000000  1.000000
 FoFCou: FMM=F IPFlag=           0 FMFlag=      100000 FMFlg1=           0
         NFxFlg=           0 DoJE=T BraDBF=F KetDBF=T FulRan=T
         wScrn=  0.000000 ICntrl=       500 IOpCl=  0 I1Cent=   200000004 NGrid=           0
         NMat0=    1 NMatS0=      1 NMatT0=    0 NMatD0=    1 NMtDS0=    0 NMtDT0=    0
 Petite list used in FoFCou.
 Requested convergence on RMS density matrix=1.00D-08 within 128 cycles.
 Requested convergence on MAX density matrix=1.00D-06.
 Requested convergence on             energy=1.00D-06.
 No special actions if energy rises.
 Integral accuracy reduced to 1.0D-05 until final iterations.
 Initial convergence to 1.0D-05 achieved.  Increase integral accuracy.
 SCF Done:  E(RHF) =  -1192.07358549     A.U. after   28 cycles
            NFock= 28  Conv=0.64D-08     -V/T= 2.0050

 **********************************************************************

            Population analysis using the SCF Density.

 **********************************************************************

 Orbital symmetries:
       Occupied  (A) (A) (A) (A) (A) (A) (A) (A) (A) (A) (A) (A)
                 (A) (A) (A) (A) (A) (A) (A) (A) (A) (A) (A) (A)
                 (A) (A) (A) (A) (A) (A) (A) (A) (A) (A) (A) (A)
                 (A) (A) (A) (A) (A) (A) (A) (A) (A) (A) (A) (A)
                 (A) (A) (A) (A) (A) (A) (A) (A) (A) (A) (A) (A)
                 (A) (A) (A) (A) (A) (A) (A) (A) (A)
       Virtual   (A) (A) (A) (A) (A) (A) (A) (A) (A) (A) (A) (A)
                 (A) (A) (A) (A) (A) (A) (A) (A) (A) (A) (A) (A)
                 (A) (A) (A) (A) (A) (A) (A) (A) (A) (A) (A) (A)
                 (A) (A) (A) (A) (A) (A) (A) (A) (A) (A) (A) (A)
                 (A) (A) (A) (A) (A) (A) (A) (A) (A) (A) (A) (A)
                 (A) (A) (A) (A) (A) (A) (A) (A) (A) (A) (A) (A)
                 (A) (A) (A) (A) (A) (A) (A) (A) (A) (A) (A) (A)
                 (A) (A) (A) (A) (A) (A) (A) (A) (A) (A) (A) (A)
                 (A) (A) (A) (A) (A) (A) (A) (A) (A) (A) (A) (A)
                 (A) (A) (A) (A) (A) (A) (A) (A) (A) (A) (A) (A)
                 (A) (A) (A) (A) (A) (A) (A) (A) (A) (A) (A) (A)
                 (A) (A) (A) (A) (A) (A) (A) (A) (A) (A) (A) (A)
                 (A) (A) (A) (A) (A) (A) (A) (A) (A) (A) (A) (A)
                 (A) (A) (A) (A) (A) (A) (A) (A) (A) (A) (A) (A)
                 (A) (A) (A) (A) (A) (A) (A) (A) (A) (A) (A) (A)
                 (A) (A) (A) (A) (A) (A) (A) (A) (A) (A) (A) (A)
                 (A) (A) (A) (A) (A) (A) (A) (A) (A) (A) (A) (A)
                 (A)
 The electronic state is 1-A.
 Alpha  occ. eigenvalues --  -20.75227 -20.75037 -20.74797 -20.74630 -20.70823
 Alpha  occ. eigenvalues --  -20.69644 -20.69634 -20.69498 -20.69225 -20.68985
 Alpha  occ. eigenvalues --  -20.68737 -20.68707 -15.99039 -15.98857 -15.98177
 Alpha  occ. eigenvalues --  -15.93724 -11.47094 -11.47022  -1.71112  -1.70792
 Alpha  occ. eigenvalues --   -1.69942  -1.59253  -1.52342  -1.50137  -1.48745
 Alpha  occ. eigenvalues --   -1.48429  -1.47763  -1.46724  -1.42719  -1.34189
 Alpha  occ. eigenvalues --   -1.14654  -1.05255  -1.01278  -0.98999  -0.95252
 Alpha  occ. eigenvalues --   -0.90815  -0.87107  -0.86830  -0.85600  -0.83745
 Alpha  occ. eigenvalues --   -0.82824  -0.81338  -0.81111  -0.80476  -0.79634
 Alpha  occ. eigenvalues --   -0.78444  -0.76735  -0.74660  -0.71961  -0.70324
 Alpha  occ. eigenvalues --   -0.67811  -0.67325  -0.65065  -0.62001  -0.61018
 Alpha  occ. eigenvalues --   -0.59834  -0.59437  -0.57922  -0.57638  -0.57278
 Alpha  occ. eigenvalues --   -0.56871  -0.56368  -0.55933  -0.55089  -0.53747
 Alpha  occ. eigenvalues --   -0.52593  -0.52317  -0.51534  -0.47336
 Alpha virt. eigenvalues --   -0.10204   0.03821   0.04081   0.04632   0.14121
 Alpha virt. eigenvalues --    0.16933   0.20378   0.21278   0.23614   0.24687
 Alpha virt. eigenvalues --    0.26606   0.28483   0.28926   0.29873   0.34333
 Alpha virt. eigenvalues --    0.37126   0.38911   0.41896   0.42695   0.43444
 Alpha virt. eigenvalues --    0.53804   0.54649   0.57412   0.65572   0.67788
 Alpha virt. eigenvalues --    0.70059   0.71324   0.72780   0.75098   0.76280
 Alpha virt. eigenvalues --    0.78214   0.79713   0.80628   0.81450   0.82955
 Alpha virt. eigenvalues --    0.83501   0.83840   0.86156   0.86623   0.87080
 Alpha virt. eigenvalues --    0.89526   0.91178   0.92975   0.96458   0.97656
 Alpha virt. eigenvalues --    1.00382   1.01939   1.02594   1.03485   1.03655
 Alpha virt. eigenvalues --    1.04158   1.05964   1.06916   1.07160   1.08026
 Alpha virt. eigenvalues --    1.09627   1.11084   1.12384   1.13152   1.14673
 Alpha virt. eigenvalues --    1.15390   1.17347   1.18139   1.19356   1.19515
 Alpha virt. eigenvalues --    1.20017   1.21528   1.22144   1.23151   1.23796
 Alpha virt. eigenvalues --    1.24403   1.24860   1.27608   1.29360   1.29961
 Alpha virt. eigenvalues --    1.31275   1.33844   1.34539   1.37251   1.37977
 Alpha virt. eigenvalues --    1.40749   1.41751   1.42839   1.48472   1.49761
 Alpha virt. eigenvalues --    1.50743   1.52431   1.53389   1.56046   1.58237
 Alpha virt. eigenvalues --    1.58887   1.59980   1.60424   1.62554   1.63317
 Alpha virt. eigenvalues --    1.66015   1.68868   1.69559   1.71397   1.72245
 Alpha virt. eigenvalues --    1.77697   1.78937   1.82264   1.84538   1.86828
 Alpha virt. eigenvalues --    1.90394   1.92518   1.94223   1.97777   1.98480
 Alpha virt. eigenvalues --    1.99658   2.00002   2.00977   2.01757   2.01868
 Alpha virt. eigenvalues --    2.02961   2.03058   2.03861   2.04141   2.04946
 Alpha virt. eigenvalues --    2.06714   2.08063   2.08847   2.10064   2.12030
 Alpha virt. eigenvalues --    2.12791   2.15443   2.17567   2.19244   2.20598
 Alpha virt. eigenvalues --    2.21510   2.23077   2.24976   2.26568   2.28195
 Alpha virt. eigenvalues --    2.28426   2.28796   2.30303   2.31822   2.33051
 Alpha virt. eigenvalues --    2.33788   2.34099   2.35721   2.37133   2.38606
 Alpha virt. eigenvalues --    2.39827   2.42353   2.45292   2.47139   2.48423
 Alpha virt. eigenvalues --    2.49628   2.55343   2.63441   2.65367   2.71285
 Alpha virt. eigenvalues --    2.73156   2.76270   2.77741   2.80924   2.84516
 Alpha virt. eigenvalues --    2.89226   2.91911   2.95006   2.97094   2.98337
 Alpha virt. eigenvalues --    2.98816   2.99477   3.01559   3.07700   3.08968
 Alpha virt. eigenvalues --    3.09904   3.12853   3.13006   3.14162   3.14683
 Alpha virt. eigenvalues --    3.15060   3.15954   3.16714   3.18865   3.19550
 Alpha virt. eigenvalues --    3.28673   3.32456   3.33423   3.34180   3.39185
 Alpha virt. eigenvalues --    3.41103   3.44554   3.74427   3.88661   3.96230
 Alpha virt. eigenvalues --    3.98742   4.01910   4.14056   4.16152   4.17529
 Alpha virt. eigenvalues --    4.17677   4.20920   4.26766   4.33463   4.38696
 Alpha virt. eigenvalues --    4.46475   4.50553   4.59037   4.89889   4.95965
          Condensed to atoms (all electrons):
               1          2          3          4          5          6
     1  O    8.151771   0.378008  -0.074803  -0.083194   0.003227  -0.000136
     2  N    0.378008   5.227136   0.321791   0.192466  -0.036911   0.003047
     3  O   -0.074803   0.321791   8.263803  -0.088335   0.003286   0.000464
     4  O   -0.083194   0.192466  -0.088335   8.412910   0.159634  -0.045038
     5  C    0.003227  -0.036911   0.003286   0.159634   4.657416   0.328210
     6  C   -0.000136   0.003047   0.000464  -0.045038   0.328210   4.774901
     7  O    0.000001  -0.000127  -0.000004   0.001243  -0.048664   0.136762
     8  N    0.000000   0.000001   0.000000  -0.000009   0.003422  -0.041494
     9  O    0.000000   0.000000   0.000000   0.000000  -0.000081   0.002467
    10  O    0.000000   0.000000   0.000000  -0.000003  -0.001880   0.002531
    11  O    0.000002  -0.000071  -0.000003   0.003439  -0.041466   0.135574
    12  N    0.000000   0.000001   0.000000  -0.000032   0.001992  -0.034766
    13  O    0.000000   0.000000   0.000000   0.000001  -0.000093   0.002503
    14  O    0.000000   0.000000   0.000000  -0.000005   0.000554   0.005983
    15  O   -0.000097  -0.000403  -0.002995  -0.025444   0.146130  -0.034866
    16  N    0.000001   0.000014   0.000731   0.000852  -0.028210  -0.000145
    17  O    0.000000   0.000002  -0.000011  -0.000023   0.002361  -0.000102
    18  O    0.000000   0.000003  -0.000058   0.000144  -0.000825  -0.004742
    19  H    0.000028  -0.004195   0.004361  -0.027676   0.396225  -0.046665
    20  H    0.000000  -0.000003   0.000003   0.001252  -0.031409   0.388666
               7          8          9         10         11         12
     1  O    0.000001   0.000000   0.000000   0.000000   0.000002   0.000000
     2  N   -0.000127   0.000001   0.000000   0.000000  -0.000071   0.000001
     3  O   -0.000004   0.000000   0.000000   0.000000  -0.000003   0.000000
     4  O    0.001243  -0.000009   0.000000  -0.000003   0.003439  -0.000032
     5  C   -0.048664   0.003422  -0.000081  -0.001880  -0.041466   0.001992
     6  C    0.136762  -0.041494   0.002467   0.002531   0.135574  -0.034766
     7  O    8.338634   0.118703  -0.044884  -0.057169  -0.032710  -0.000109
     8  N    0.118703   6.072693   0.196634   0.155736   0.000811   0.000533
     9  O   -0.044884   0.196634   8.133558  -0.084316  -0.000017   0.000009
    10  O   -0.057169   0.155736  -0.084316   8.251783   0.000002   0.000011
    11  O   -0.032710   0.000811  -0.000017   0.000002   8.436480   0.191222
    12  N   -0.000109   0.000533   0.000009   0.000011   0.191222   5.220474
    13  O   -0.000077   0.000006   0.000000   0.000000  -0.082680   0.381706
    14  O   -0.002829   0.001511  -0.000102   0.000008  -0.089220   0.314819
    15  O    0.003194  -0.000562  -0.000001  -0.001835   0.000701  -0.000007
    16  N    0.000159   0.000080   0.000001   0.002286  -0.000004  -0.000001
    17  O    0.000000   0.000008   0.000000  -0.000133   0.000000   0.000000
    18  O    0.000076  -0.000042   0.000000  -0.000180   0.000068   0.000007
    19  H    0.002086  -0.000058   0.000000   0.000005   0.005186  -0.000254
    20  H   -0.027383  -0.003394   0.000147   0.003948  -0.024377  -0.002973
              13         14         15         16         17         18
     1  O    0.000000   0.000000  -0.000097   0.000001   0.000000   0.000000
     2  N    0.000000   0.000000  -0.000403   0.000014   0.000002   0.000003
     3  O    0.000000   0.000000  -0.002995   0.000731  -0.000011  -0.000058
     4  O    0.000001  -0.000005  -0.025444   0.000852  -0.000023   0.000144
     5  C   -0.000093   0.000554   0.146130  -0.028210   0.002361  -0.000825
     6  C    0.002503   0.005983  -0.034866  -0.000145  -0.000102  -0.004742
     7  O   -0.000077  -0.002829   0.003194   0.000159   0.000000   0.000076
     8  N    0.000006   0.001511  -0.000562   0.000080   0.000008  -0.000042
     9  O    0.000000  -0.000102  -0.000001   0.000001   0.000000   0.000000
    10  O    0.000000   0.000008  -0.001835   0.002286  -0.000133  -0.000180
    11  O   -0.082680  -0.089220   0.000701  -0.000004   0.000000   0.000068
    12  N    0.381706   0.314819  -0.000007  -0.000001   0.000000   0.000007
    13  O    8.145334  -0.073799   0.000000   0.000000   0.000000   0.000000
    14  O   -0.073799   8.278347   0.000000   0.000000   0.000000  -0.000001
    15  O    0.000000   0.000000   8.402196   0.193176  -0.079094  -0.088757
    16  N    0.000000   0.000000   0.193176   5.228314   0.382101   0.304290
    17  O    0.000000   0.000000  -0.079094   0.382101   8.131573  -0.073515
    18  O    0.000000  -0.000001  -0.088757   0.304290  -0.073515   8.298238
    19  H   -0.000001   0.000026  -0.028777  -0.002074   0.000003   0.004927
    20  H    0.000003   0.003936  -0.000089  -0.000981  -0.000021   0.007221
              19         20
     1  O    0.000028   0.000000
     2  N   -0.004195  -0.000003
     3  O    0.004361   0.000003
     4  O   -0.027676   0.001252
     5  C    0.396225  -0.031409
     6  C   -0.046665   0.388666
     7  O    0.002086  -0.027383
     8  N   -0.000058  -0.003394
     9  O    0.000000   0.000147
    10  O    0.000005   0.003948
    11  O    0.005186  -0.024377
    12  N   -0.000254  -0.002973
    13  O   -0.000001   0.000003
    14  O    0.000026   0.003936
    15  O   -0.028777  -0.000089
    16  N   -0.002074  -0.000981
    17  O    0.000003  -0.000021
    18  O    0.004927   0.007221
    19  H    0.403918  -0.000868
    20  H   -0.000868   0.381615
 Mulliken charges:
               1
     1  O   -0.374808
     2  N    0.919240
     3  O   -0.428231
     4  O   -0.502181
     5  C    0.487081
     6  C    0.426846
     7  O   -0.386902
     8  N    0.495420
     9  O   -0.203415
    10  O   -0.270793
    11  O   -0.502938
    12  N    0.927370
    13  O   -0.372903
    14  O   -0.439227
    15  O   -0.482471
    16  N    0.919409
    17  O   -0.363151
    18  O   -0.446856
    19  H    0.293803
    20  H    0.304708
 Sum of Mulliken charges =   0.00000
 Mulliken charges with hydrogens summed into heavy atoms:
               1
     1  O   -0.374808
     2  N    0.919240
     3  O   -0.428231
     4  O   -0.502181
     5  C    0.780884
     6  C    0.731553
     7  O   -0.386902
     8  N    0.495420
     9  O   -0.203415
    10  O   -0.270793
    11  O   -0.502938
    12  N    0.927370
    13  O   -0.372903
    14  O   -0.439227
    15  O   -0.482471
    16  N    0.919409
    17  O   -0.363151
    18  O   -0.446856
 Electronic spatial extent (au):  <R**2>=           4316.3376
 Charge=              0.0000 electrons
 Dipole moment (field-independent basis, Debye):
    X=              0.1890    Y=             -1.0778    Z=             -2.0243  Tot=              2.3011
 Quadrupole moment (field-independent basis, Debye-Ang):
   XX=           -112.9506   YY=           -113.1376   ZZ=           -104.8499
   XY=              0.6658   XZ=             -0.8044   YZ=              0.8610
 Traceless Quadrupole moment (field-independent basis, Debye-Ang):
   XX=             -2.6379   YY=             -2.8249   ZZ=              5.4628
   XY=              0.6658   XZ=             -0.8044   YZ=              0.8610
 Octapole moment (field-independent basis, Debye-Ang**2):
  XXX=             -2.7902  YYY=             -7.2347  ZZZ=              0.7797  XYY=              2.6842
  XXY=             12.7222  XXZ=              0.2440  XZZ=             -3.2141  YZZ=             -3.5419
  YYZ=             -3.1880  XYZ=            -20.7995
 Hexadecapole moment (field-independent basis, Debye-Ang**3):
 XXXX=          -2748.2827 YYYY=          -1728.4357 ZZZZ=           -835.4069 XXXY=            -20.8842
 XXXZ=             18.5121 YYYX=             16.6031 YYYZ=              0.7406 ZZZX=            -18.5652
 ZZZY=             23.8141 XXYY=           -783.9021 XXZZ=           -592.3312 YYZZ=           -441.3336
 XXYZ=            -11.9653 YYXZ=             12.5810 ZZXY=            -14.7453
 N-N= 1.507189155978D+03 E-N=-5.820620500018D+03  KE= 1.186198316231D+03
 Calling FoFJK, ICntrl=      2127 FMM=F ISym2X=0 I1Cent= 0 IOpClX= 0 NMat=1 NMatS=1 NMatT=0.
 ***** Axes restored to original set *****
 -------------------------------------------------------------------
 Center     Atomic                   Forces (Hartrees/Bohr)
 Number     Number              X              Y              Z
 -------------------------------------------------------------------
      1        8          -0.027545775   -0.072647407    0.070684768
      2        7           0.030508685    0.010668964   -0.022478580
      3        8          -0.043763899    0.064310424   -0.040969786
      4        8           0.036917868   -0.019501336    0.024371884
      5        6          -0.005406025   -0.011754898   -0.032524036
      6        6           0.018537740    0.007480249   -0.000666008
      7        8          -0.054850490   -0.061730936    0.029390900
      8        7           0.103985954    0.251644461    0.088756288
      9        8           0.033016227   -0.160370148   -0.027534924
     10        8          -0.089944454   -0.054245407   -0.093318560
     11        8          -0.036918918   -0.000873518    0.024093739
     12        7          -0.024290613   -0.014405676   -0.023915007
     13        8           0.020938530    0.036739660    0.097120618
     14        8           0.044265336   -0.008790388   -0.070601336
     15        8          -0.003153294   -0.038734256    0.003711676
     16        7           0.012245600   -0.004944992    0.034769356
     17        8          -0.051588455   -0.022259378   -0.095290862
     18        8           0.036417114    0.065448574    0.032051140
     19        1          -0.002961905    0.017772426    0.014223191
     20        1           0.003590773    0.016193583   -0.011874460
 -------------------------------------------------------------------
 Cartesian Forces:  Max     0.251644461 RMS     0.058532268

 GradGradGradGradGradGradGradGradGradGradGradGradGradGradGradGradGradGrad
 Berny optimization.
 FormGI is forming the generalized inverse of G from B-inverse, IUseBI=4.
 Internal  Forces:  Max     0.157135286 RMS     0.040031741
 Search for a local minimum.
 Step number   1 out of a maximum of   90
 All quantities printed in internal units (Hartrees-Bohrs-Radians)
 Mixed Optimization -- RFO/linear search
 Second derivative matrix not updated -- first step.
 ITU=  0
     Eigenvalues ---    0.00230   0.00587   0.01145   0.01157   0.01171
     Eigenvalues ---    0.01182   0.01238   0.01320   0.01347   0.02935
     Eigenvalues ---    0.02952   0.02958   0.05579   0.05886   0.06354
     Eigenvalues ---    0.06777   0.08328   0.08661   0.09115   0.17635
     Eigenvalues ---    0.18338   0.19295   0.20496   0.20561   0.24996
     Eigenvalues ---    0.24998   0.25000   0.25000   0.25000   0.25000
     Eigenvalues ---    0.25000   0.25000   0.25000   0.25000   0.25000
     Eigenvalues ---    0.26586   0.33597   0.33871   0.37786   0.39672
     Eigenvalues ---    0.40375   0.41259   0.41556   0.42126   0.42949
     Eigenvalues ---    0.43798   0.43933   0.44238   0.90224   0.90959
     Eigenvalues ---    0.90982   0.92409   0.92832   0.92871
 RFO step:  Lambda=-1.97458005D-01 EMin= 2.30000000D-03
 Linear search not attempted -- first point.
 Maximum step size (   0.300) exceeded in Quadratic search.
    -- Step size scaled by   0.582
 Iteration  1 RMS(Cart)=  0.05911415 RMS(Int)=  0.00397499
 Iteration  2 RMS(Cart)=  0.00445793 RMS(Int)=  0.00165037
 Iteration  3 RMS(Cart)=  0.00003960 RMS(Int)=  0.00165005
 Iteration  4 RMS(Cart)=  0.00000042 RMS(Int)=  0.00165005
 Variable       Old X    -DE/DX   Delta X   Delta X   Delta X     New X
                                 (Linear)    (Quad)   (Total)
    R1        2.31842  -0.10503   0.00000  -0.05453  -0.05453   2.26389
    R2        2.32494  -0.08781   0.00000  -0.04619  -0.04619   2.27875
    R3        2.66534  -0.04144   0.00000  -0.03789  -0.03789   2.62745
    R4        2.72002  -0.03383   0.00000  -0.03316  -0.03316   2.68686
    R5        2.95338  -0.01919   0.00000  -0.02412  -0.02412   2.92926
    R6        2.69493  -0.02476   0.00000  -0.02352  -0.02352   2.67140
    R7        2.08016  -0.02131   0.00000  -0.02327  -0.02327   2.05689
    R8        2.69878  -0.02049   0.00000  -0.01956  -0.01956   2.67922
    R9        2.71046  -0.02948   0.00000  -0.02855  -0.02855   2.68191
   R10        2.07549  -0.01996   0.00000  -0.02168  -0.02168   2.05381
   R11        2.74677  -0.05491   0.00000  -0.05558  -0.05558   2.69120
   R12        2.67732  -0.15714   0.00000  -0.14596  -0.14596   2.53136
   R13        2.68763  -0.12717   0.00000  -0.11969  -0.11969   2.56794
   R14        2.66171  -0.04317   0.00000  -0.03929  -0.03929   2.62242
   R15        2.31655  -0.10591   0.00000  -0.05478  -0.05478   2.26176
   R16        2.32484  -0.08367   0.00000  -0.04401  -0.04401   2.28083
   R17        2.66697  -0.04777   0.00000  -0.04378  -0.04378   2.62319
   R18        2.31637  -0.11062   0.00000  -0.05720  -0.05720   2.25917
   R19        2.32830  -0.08123   0.00000  -0.04302  -0.04302   2.28528
    A1        2.27512  -0.00390   0.00000  -0.00507  -0.00507   2.27005
    A2        1.96677  -0.00208   0.00000  -0.00270  -0.00270   1.96407
    A3        2.04114   0.00599   0.00000   0.00779   0.00779   2.04893
    A4        1.96476   0.01296   0.00000   0.01687   0.01687   1.98163
    A5        1.85418   0.00004   0.00000  -0.00123  -0.00129   1.85289
    A6        1.91965  -0.01096   0.00000  -0.02067  -0.02068   1.89897
    A7        1.88475   0.00553   0.00000   0.01150   0.01145   1.89620
    A8        1.95107   0.00310   0.00000   0.00279   0.00273   1.95379
    A9        1.87609   0.00438   0.00000   0.01124   0.01120   1.88729
   A10        1.97297  -0.00160   0.00000  -0.00264  -0.00265   1.97032
   A11        1.87975   0.01396   0.00000   0.02044   0.02038   1.90013
   A12        1.84633  -0.00913   0.00000  -0.01326  -0.01318   1.83315
   A13        1.89180   0.00308   0.00000   0.00787   0.00785   1.89964
   A14        1.94750  -0.00630   0.00000  -0.01160  -0.01152   1.93598
   A15        1.96763  -0.00529   0.00000  -0.00784  -0.00799   1.95964
   A16        1.92532   0.00400   0.00000   0.00509   0.00508   1.93040
   A17        1.89346   0.02210   0.00000   0.02877   0.02877   1.92223
   A18        1.85476   0.03326   0.00000   0.06155   0.05571   1.91047
   A19        1.85540   0.01206   0.00000   0.04531   0.03549   1.89088
   A20        1.87067   0.07407   0.00000   0.13050   0.12466   1.99533
   A21        1.96731   0.00779   0.00000   0.01014   0.01014   1.97745
   A22        1.96893  -0.00023   0.00000  -0.00030  -0.00030   1.96863
   A23        2.03524   0.00534   0.00000   0.00694   0.00694   2.04218
   A24        2.27902  -0.00510   0.00000  -0.00664  -0.00664   2.27238
   A25        1.96715   0.01322   0.00000   0.01720   0.01720   1.98435
   A26        1.97740  -0.00353   0.00000  -0.00459  -0.00460   1.97280
   A27        2.02934   0.00894   0.00000   0.01164   0.01164   2.04098
   A28        2.27614  -0.00540   0.00000  -0.00702  -0.00702   2.26913
    D1       -3.12089  -0.00068   0.00000  -0.00172  -0.00172  -3.12261
    D2        3.12491   0.00175   0.00000   0.00484   0.00484   3.12975
    D3        0.00041   0.00123   0.00000   0.00347   0.00347   0.00389
    D4       -2.86876  -0.00199   0.00000  -0.00512  -0.00509  -2.87386
    D5        1.29994   0.00039   0.00000   0.00384   0.00376   1.30370
    D6       -0.86044   0.00570   0.00000   0.01268   0.01272  -0.84771
    D7       -0.95975   0.00921   0.00000   0.01877   0.01886  -0.94089
    D8        1.12488   0.00412   0.00000   0.00860   0.00860   1.13348
    D9       -3.09348   0.00549   0.00000   0.01145   0.01140  -3.08208
   D10        1.13444  -0.00234   0.00000  -0.00558  -0.00552   1.12892
   D11       -3.06412  -0.00744   0.00000  -0.01574  -0.01577  -3.07990
   D12       -0.99930  -0.00607   0.00000  -0.01289  -0.01297  -1.01227
   D13       -2.97395   0.00076   0.00000   0.00084   0.00092  -2.97303
   D14       -0.88932  -0.00433   0.00000  -0.00933  -0.00934  -0.89866
   D15        1.17550  -0.00296   0.00000  -0.00648  -0.00654   1.16897
   D16       -2.76461  -0.00014   0.00000  -0.00116  -0.00117  -2.76578
   D17        1.46323   0.00493   0.00000   0.01193   0.01189   1.47513
   D18       -0.65651  -0.00195   0.00000  -0.00294  -0.00289  -0.65940
   D19       -2.11278  -0.01166   0.00000  -0.02704  -0.02704  -2.13982
   D20        2.15137  -0.00549   0.00000  -0.01685  -0.01678   2.13459
   D21       -0.02661  -0.00179   0.00000  -0.00847  -0.00855  -0.03517
   D22        2.87300  -0.00266   0.00000  -0.00250  -0.00255   2.87045
   D23       -1.37077   0.00539   0.00000   0.00811   0.00817  -1.36260
   D24        0.83064  -0.00321   0.00000  -0.00695  -0.00696   0.82368
   D25       -2.93292   0.04607   0.00000   0.08046   0.08112  -2.85180
   D26        1.36140  -0.05835   0.00000  -0.11566  -0.11631   1.24509
   D27       -1.97838  -0.06258   0.00000  -0.13904  -0.14626  -2.12463
   D28       -3.09612  -0.00072   0.00000  -0.00203  -0.00203  -3.09814
   D29        0.04479  -0.00081   0.00000  -0.00224  -0.00224   0.04254
   D30        3.14078  -0.00009   0.00000  -0.00025  -0.00024   3.14054
   D31        2.97454  -0.00029   0.00000  -0.00087  -0.00087   2.97367
   D32       -0.19082   0.00007   0.00000   0.00026   0.00027  -0.19055
   D33        3.11360   0.00068   0.00000   0.00166   0.00166   3.11525
         Item               Value     Threshold  Converged?
 Maximum Force            0.157135     0.000450     NO 
 RMS     Force            0.040032     0.000300     NO 
 Maximum Displacement     0.199071     0.001800     NO 
 RMS     Displacement     0.058403     0.001200     NO 
 Predicted change in Energy=-9.462643D-02
 GradGradGradGradGradGradGradGradGradGradGradGradGradGradGradGradGradGrad

                          Input orientation:                          
 ---------------------------------------------------------------------
 Center     Atomic      Atomic             Coordinates (Angstroms)
 Number     Number       Type             X           Y           Z
 ---------------------------------------------------------------------
      1          8           0        2.917264    1.699856   -2.207670
      2          7           0        2.606911    0.850056   -1.422355
      3          8           0        3.269488   -0.025613   -0.924062
      4          8           0        1.261650    0.910134   -1.076176
      5          6           0        0.866467   -0.099219   -0.156050
      6          6           0       -0.682844   -0.133123   -0.191891
      7          8           0       -1.175880    1.173278    0.053749
      8          7           0       -2.042545    1.165770    1.183771
      9          8           0       -2.773785    2.288076    1.192865
     10          8           0       -1.289108    0.979573    2.299235
     11          8           0       -1.011391   -0.560292   -1.504799
     12          7           0       -2.328284   -0.978988   -1.632365
     13          8           0       -2.582537   -1.381615   -2.730433
     14          8           0       -3.029200   -0.889216   -0.653886
     15          8           0        1.358023    0.235567    1.126403
     16          7           0        1.457767   -0.849536    1.986353
     17          8           0        2.040941   -0.592683    2.997867
     18          8           0        0.937692   -1.881252    1.629231
     19          1           0        1.234678   -1.059194   -0.513278
     20          1           0       -1.035305   -0.851577    0.543493
 ---------------------------------------------------------------------
                    Distance matrix (angstroms):
                    1          2          3          4          5
     1  O    0.000000
     2  N    1.197997   0.000000
     3  O    2.179209   1.205861   0.000000
     4  O    2.155226   1.390387   2.220400   0.000000
     5  C    3.413441   2.352402   2.523840   1.421827   0.000000
     6  C    4.514859   3.647351   4.021016   2.377268   1.550097
     7  O    4.705861   4.073434   4.706884   2.699542   2.415460
     8  N    6.032150   5.339383   5.837813   4.011286   3.443497
     9  O    6.655650   6.152980   6.808501   4.830321   4.557432
    10  O    6.206816   5.389432   5.672817   4.231381   3.440745
    11  O    4.586570   3.884326   4.353053   2.740909   2.357555
    12  N    5.918020   5.267415   5.722384   4.094601   3.627663
    13  O    6.325864   5.798431   6.272792   4.771421   4.490838
    14  O    6.669181   5.948223   6.363355   4.671978   4.006016
    15  O    3.961239   2.904046   2.815373   2.305576   1.413646
    16  N    5.120484   3.978497   3.525862   3.537510   2.345741
    17  O    5.755110   4.684035   4.148786   4.411754   3.401483
    18  O    5.609353   4.422501   3.924281   3.900770   2.523478
    19  H    3.648893   2.520849   2.318941   2.048374   1.088459
    20  H    5.449909   4.475025   4.622465   3.317069   2.161513
                    6          7          8          9         10
     6  C    0.000000
     7  O    1.417782   0.000000
     8  N    2.329884   1.424119   0.000000
     9  O    3.485942   2.256914   1.339539   0.000000
    10  O    2.794881   2.256669   1.358895   2.267268   0.000000
    11  O    1.419205   2.336962   3.357228   4.300770   4.113270
    12  N    2.344765   2.967029   3.551374   4.342131   4.513683
    13  O    3.407603   4.032100   4.701250   5.375451   5.704886
    14  O    2.508087   2.861716   2.928043   3.683872   3.904000
    15  O    2.457432   2.906984   3.525965   4.614005   2.989379
    16  N    3.136911   3.842243   4.117983   5.327313   3.314945
    17  O    4.219569   4.704720   4.801871   5.893929   3.748240
    18  O    2.999763   4.034784   4.285393   5.598997   3.686714
    19  H    2.153553   3.334103   4.309366   5.493898   4.293752
    20  H    1.086827   2.087977   2.343966   3.647111   2.549541
                   11         12         13         14         15
    11  O    0.000000
    12  N    1.387727   0.000000
    13  O    2.155284   1.196873   0.000000
    14  O    2.214452   1.206965   2.180369   0.000000
    15  O    3.629151   4.761807   5.746171   4.866445   0.000000
    16  N    4.285854   5.238899   6.233397   5.206276   1.388133
    17  O    5.439833   6.377963   7.403539   6.255363   2.157488
    18  O    3.919950   4.703051   5.625684   4.683267   2.215951
    19  H    2.505364   3.735437   4.426157   4.269581   2.092887
    20  H    2.069038   2.534243   3.659707   2.326102   2.692524
                   16         17         18         19         20
    16  N    0.000000
    17  O    1.195503   0.000000
    18  O    1.209319   2.179618   0.000000
    19  H    2.518309   3.632607   2.313941   0.000000
    20  H    2.880496   3.943890   2.476242   2.512507   0.000000
 Stoichiometry    C2H2N4O12
 Framework group  C1[X(C2H2N4O12)]
 Deg. of freedom    54
 Full point group                 C1      NOp   1
 Largest Abelian subgroup         C1      NOp   1
 Largest concise Abelian subgroup C1      NOp   1
                         Standard orientation:                         
 ---------------------------------------------------------------------
 Center     Atomic      Atomic             Coordinates (Angstroms)
 Number     Number       Type             X           Y           Z
 ---------------------------------------------------------------------
      1          8           0       -2.736156   -2.455591    1.582473
      2          7           0       -2.477983   -1.672233    0.713627
      3          8           0       -3.154706   -1.280292   -0.204268
      4          8           0       -1.180862   -1.180504    0.807740
      5          6           0       -0.846480   -0.259743   -0.222785
      6          6           0        0.697910   -0.128816   -0.200013
      7          8           0        1.109607    0.215393    1.112288
      8          7           0        1.850188    1.431611    1.090601
      9          8           0        2.531120    1.560014    2.236991
     10          8           0        0.989876    2.451552    0.833341
     11          8           0        1.181555   -1.412884   -0.562505
     12          7           0        2.520122   -1.412029   -0.928597
     13          8           0        2.906028   -2.489823   -1.277798
     14          8           0        3.108361   -0.360828   -0.853005
     15          8           0       -1.485147    0.973110    0.042864
     16          7           0       -1.633028    1.777787   -1.078536
     17          8           0       -2.330674    2.728759   -0.883168
     18          8           0       -1.037214    1.442355   -2.076004
     19          1           0       -1.136000   -0.688889   -1.180258
     20          1           0        0.998035    0.614201   -0.934210
 ---------------------------------------------------------------------
 Rotational constants (GHZ):           0.4744514           0.3348687           0.2672994
 Standard basis: 6-31G(d) (6D, 7F)
 There are   274 symmetry adapted cartesian basis functions of A   symmetry.
 There are   274 symmetry adapted basis functions of A   symmetry.
   274 basis functions,   512 primitive gaussians,   274 cartesian basis functions
    69 alpha electrons       69 beta electrons
       nuclear repulsion energy      1525.9700538287 Hartrees.
 NAtoms=   20 NActive=   20 NUniq=   20 SFac= 1.00D+00 NAtFMM=   60 NAOKFM=F Big=F
 Integral buffers will be    131072 words long.
 Raffenetti 1 integral format.
 Two-electron integral symmetry is turned on.
 One-electron integrals computed using PRISM.
 NBasis=   274 RedAO= T EigKep=  1.85D-03  NBF=   274
 NBsUse=   274 1.00D-06 EigRej= -1.00D+00 NBFU=   274
 Initial guess from the checkpoint file:  "C:\g16w\Scratch\Gau-20860.chk"
 B after Tr=     0.000000    0.000000    0.000000
         Rot=    0.999904   -0.008947   -0.009570    0.004603 Ang=  -1.59 deg.
 ExpMin= 1.61D-01 ExpMax= 5.48D+03 ExpMxC= 8.25D+02 IAcc=3 IRadAn=         5 AccDes= 0.00D+00
 Harris functional with IExCor=  205 and IRadAn=       5 diagonalized for initial guess.
 HarFok:  IExCor=  205 AccDes= 0.00D+00 IRadAn=         5 IDoV= 1 UseB2=F ITyADJ=14
 ICtDFT=  3500011 ScaDFX=  1.000000  1.000000  1.000000  1.000000
 FoFCou: FMM=F IPFlag=           0 FMFlag=      100000 FMFlg1=           0
         NFxFlg=           0 DoJE=T BraDBF=F KetDBF=T FulRan=T
         wScrn=  0.000000 ICntrl=       500 IOpCl=  0 I1Cent=   200000004 NGrid=           0
         NMat0=    1 NMatS0=      1 NMatT0=    0 NMatD0=    1 NMtDS0=    0 NMtDT0=    0
 Petite list used in FoFCou.
 Requested convergence on RMS density matrix=1.00D-08 within 128 cycles.
 Requested convergence on MAX density matrix=1.00D-06.
 Requested convergence on             energy=1.00D-06.
 No special actions if energy rises.
 Integral accuracy reduced to 1.0D-05 until final iterations.
 Initial convergence to 1.0D-05 achieved.  Increase integral accuracy.
 SCF Done:  E(RHF) =  -1192.17799320     A.U. after   22 cycles
            NFock= 22  Conv=0.49D-08     -V/T= 2.0041
 Calling FoFJK, ICntrl=      2127 FMM=F ISym2X=0 I1Cent= 0 IOpClX= 0 NMat=1 NMatS=1 NMatT=0.
 ***** Axes restored to original set *****
 -------------------------------------------------------------------
 Center     Atomic                   Forces (Hartrees/Bohr)
 Number     Number              X              Y              Z
 -------------------------------------------------------------------
      1        8          -0.015115070   -0.042295256    0.040647961
      2        7           0.016224575    0.009323533   -0.016649076
      3        8          -0.026262370    0.035777732   -0.021043067
      4        8           0.023573322   -0.013606938    0.018750992
      5        6          -0.005695621   -0.005288486   -0.026123480
      6        6           0.016527741    0.004962967   -0.001524064
      7        8          -0.050015029   -0.048373513    0.017841414
      8        7           0.086271035    0.223008564    0.103922255
      9        8           0.048555649   -0.156986877   -0.021956864
     10        8          -0.090396555   -0.034251142   -0.101304571
     11        8          -0.025120929    0.000326131    0.017712049
     12        7          -0.011996830   -0.008890664   -0.019281627
     13        8           0.011509052    0.020571525    0.056361051
     14        8           0.025482273   -0.004431863   -0.038058629
     15        8          -0.003627999   -0.025221302    0.002605986
     16        7           0.009268632    0.002769845    0.022507991
     17        8          -0.030479453   -0.014431084   -0.053395252
     18        8           0.020338054    0.037223833    0.014361615
     19        1          -0.001069496    0.009534181    0.010574003
     20        1           0.002029020    0.010278816   -0.005948687
 -------------------------------------------------------------------
 Cartesian Forces:  Max     0.223008564 RMS     0.049000071

 GradGradGradGradGradGradGradGradGradGradGradGradGradGradGradGradGradGrad
 Berny optimization.
 Using GEDIIS/GDIIS optimizer.
 FormGI is forming the generalized inverse of G from B-inverse, IUseBI=4.
 Internal  Forces:  Max     0.158183373 RMS     0.031181483
 Search for a local minimum.
 Step number   2 out of a maximum of   90
 All quantities printed in internal units (Hartrees-Bohrs-Radians)
 Mixed Optimization -- RFO/linear search
 Update second derivatives using D2CorX and points    1    2
 DE= -1.04D-01 DEPred=-9.46D-02 R= 1.10D+00
 TightC=F SS=  1.41D+00  RLast= 3.62D-01 DXNew= 5.0454D-01 1.0852D+00
 Trust test= 1.10D+00 RLast= 3.62D-01 DXMaxT set to 5.05D-01
 ITU=  1  0
 Use linear search instead of GDIIS.
 Linear search step of   0.590 exceeds DXMaxT=   0.505 but not scaled.
 Quartic linear search produced a step of  2.00000.
 Iteration  1 RMS(Cart)=  0.10100713 RMS(Int)=  0.02065241
 Iteration  2 RMS(Cart)=  0.02039791 RMS(Int)=  0.00944800
 Iteration  3 RMS(Cart)=  0.00049373 RMS(Int)=  0.00943941
 Iteration  4 RMS(Cart)=  0.00001690 RMS(Int)=  0.00943940
 Iteration  5 RMS(Cart)=  0.00000065 RMS(Int)=  0.00943940
 Variable       Old X    -DE/DX   Delta X   Delta X   Delta X     New X
                                 (Linear)    (Quad)   (Total)
    R1        2.26389  -0.06056  -0.10907   0.00000  -0.10907   2.15482
    R2        2.27875  -0.04911  -0.09239   0.00000  -0.09239   2.18636
    R3        2.62745  -0.02519  -0.07579   0.00000  -0.07579   2.55166
    R4        2.68686  -0.02215  -0.06631   0.00000  -0.06631   2.62055
    R5        2.92926  -0.01315  -0.04824   0.00000  -0.04824   2.88102
    R6        2.67140  -0.01411  -0.04705   0.00000  -0.04705   2.62435
    R7        2.05689  -0.01224  -0.04654   0.00000  -0.04654   2.01035
    R8        2.67922  -0.01362  -0.03911   0.00000  -0.03911   2.64011
    R9        2.68191  -0.01773  -0.05711   0.00000  -0.05711   2.62480
   R10        2.05381  -0.01148  -0.04336   0.00000  -0.04336   2.01045
   R11        2.69120  -0.04255  -0.11116   0.00000  -0.11116   2.58004
   R12        2.53136  -0.15818  -0.29191   0.00000  -0.29191   2.23945
   R13        2.56794  -0.12858  -0.23939   0.00000  -0.23939   2.32856
   R14        2.62242  -0.02582  -0.07858   0.00000  -0.07858   2.54385
   R15        2.26176  -0.06107  -0.10957   0.00000  -0.10957   2.15219
   R16        2.28083  -0.04598  -0.08801   0.00000  -0.08801   2.19282
   R17        2.62319  -0.03028  -0.08755   0.00000  -0.08755   2.53564
   R18        2.25917  -0.06315  -0.11440   0.00000  -0.11440   2.14477
   R19        2.28528  -0.04474  -0.08604   0.00000  -0.08604   2.19925
    A1        2.27005  -0.00098  -0.01014   0.00000  -0.01014   2.25992
    A2        1.96407  -0.00028  -0.00540   0.00000  -0.00540   1.95866
    A3        2.04893   0.00127   0.01559   0.00000   0.01559   2.06452
    A4        1.98163   0.01058   0.03374   0.00000   0.03374   2.01536
    A5        1.85289   0.00109  -0.00258   0.00000  -0.00293   1.84996
    A6        1.89897  -0.00776  -0.04136   0.00000  -0.04143   1.85754
    A7        1.89620   0.00436   0.02290   0.00000   0.02257   1.91876
    A8        1.95379   0.00023   0.00546   0.00000   0.00506   1.95885
    A9        1.88729   0.00317   0.02240   0.00000   0.02216   1.90945
   A10        1.97032  -0.00079  -0.00531   0.00000  -0.00538   1.96493
   A11        1.90013   0.00698   0.04077   0.00000   0.04043   1.94057
   A12        1.83315  -0.00394  -0.02635   0.00000  -0.02585   1.80731
   A13        1.89964   0.00215   0.01570   0.00000   0.01554   1.91519
   A14        1.93598  -0.00393  -0.02304   0.00000  -0.02259   1.91339
   A15        1.95964  -0.00348  -0.01599   0.00000  -0.01692   1.94272
   A16        1.93040   0.00246   0.01016   0.00000   0.01013   1.94053
   A17        1.92223   0.01589   0.05754   0.00000   0.05754   1.97977
   A18        1.91047   0.02081   0.11141   0.00000   0.06832   1.97878
   A19        1.89088   0.00950   0.07097   0.00000   0.01789   1.90878
   A20        1.99533   0.05391   0.24932   0.00000   0.21269   2.20801
   A21        1.97745   0.00960   0.02028   0.00000   0.02028   1.99773
   A22        1.96863   0.00090  -0.00061   0.00000  -0.00061   1.96802
   A23        2.04218   0.00151   0.01389   0.00000   0.01389   2.05607
   A24        2.27238  -0.00242  -0.01328   0.00000  -0.01328   2.25909
   A25        1.98435   0.01030   0.03441   0.00000   0.03441   2.01876
   A26        1.97280  -0.00013  -0.00919   0.00000  -0.00919   1.96361
   A27        2.04098   0.00202   0.02329   0.00000   0.02329   2.06427
   A28        2.26913  -0.00188  -0.01403   0.00000  -0.01404   2.25509
    D1       -3.12261  -0.00061  -0.00344   0.00000  -0.00343  -3.12604
    D2        3.12975   0.00190   0.00968   0.00000   0.00969   3.13944
    D3        0.00389   0.00141   0.00694   0.00000   0.00693   0.01082
    D4       -2.87386  -0.00168  -0.01018   0.00000  -0.01002  -2.88388
    D5        1.30370   0.00161   0.00753   0.00000   0.00708   1.31078
    D6       -0.84771   0.00470   0.02545   0.00000   0.02574  -0.82197
    D7       -0.94089   0.00644   0.03771   0.00000   0.03823  -0.90266
    D8        1.13348   0.00319   0.01720   0.00000   0.01719   1.15067
    D9       -3.08208   0.00501   0.02281   0.00000   0.02255  -3.05952
   D10        1.12892  -0.00215  -0.01104   0.00000  -0.01071   1.11821
   D11       -3.07990  -0.00540  -0.03155   0.00000  -0.03175  -3.11165
   D12       -1.01227  -0.00358  -0.02594   0.00000  -0.02638  -1.03865
   D13       -2.97303  -0.00071   0.00183   0.00000   0.00229  -2.97074
   D14       -0.89866  -0.00396  -0.01868   0.00000  -0.01876  -0.91742
   D15        1.16897  -0.00214  -0.01307   0.00000  -0.01339   1.15558
   D16       -2.76578  -0.00031  -0.00235   0.00000  -0.00241  -2.76819
   D17        1.47513   0.00307   0.02378   0.00000   0.02359   1.49871
   D18       -0.65940  -0.00069  -0.00579   0.00000  -0.00553  -0.66493
   D19       -2.13982  -0.00719  -0.05407   0.00000  -0.05403  -2.19385
   D20        2.13459  -0.00432  -0.03355   0.00000  -0.03308   2.10152
   D21       -0.03517  -0.00199  -0.01710   0.00000  -0.01761  -0.05278
   D22        2.87045  -0.00095  -0.00510   0.00000  -0.00537   2.86508
   D23       -1.36260   0.00308   0.01634   0.00000   0.01669  -1.34591
   D24        0.82368  -0.00249  -0.01392   0.00000  -0.01401   0.80967
   D25       -2.85180   0.03758   0.16224   0.00000   0.15473  -2.69707
   D26        1.24509  -0.04963  -0.23263   0.00000  -0.22512   1.01997
   D27       -2.12463  -0.06542  -0.29252   0.00000  -0.32404  -2.44868
   D28       -3.09814  -0.00072  -0.00406   0.00000  -0.00405  -3.10220
   D29        0.04254  -0.00075  -0.00449   0.00000  -0.00449   0.03805
   D30        3.14054  -0.00004  -0.00049   0.00000  -0.00049   3.14005
   D31        2.97367  -0.00013  -0.00174   0.00000  -0.00177   2.97190
   D32       -0.19055   0.00050   0.00054   0.00000   0.00057  -0.18998
   D33        3.11525   0.00080   0.00331   0.00000   0.00328   3.11854
         Item               Value     Threshold  Converged?
 Maximum Force            0.158183     0.000450     NO 
 RMS     Force            0.031181     0.000300     NO 
 Maximum Displacement     0.353671     0.001800     NO 
 RMS     Displacement     0.110898     0.001200     NO 
 Predicted change in Energy=-1.402292D-01
 GradGradGradGradGradGradGradGradGradGradGradGradGradGradGradGradGradGrad

                          Input orientation:                          
 ---------------------------------------------------------------------
 Center     Atomic      Atomic             Coordinates (Angstroms)
 Number     Number       Type             X           Y           Z
 ---------------------------------------------------------------------
      1          8           0        2.814892    1.648465   -2.130506
      2          7           0        2.548899    0.806151   -1.409399
      3          8           0        3.212113   -0.049156   -1.000524
      4          8           0        1.256347    0.854768   -1.021828
      5          6           0        0.858930   -0.142743   -0.144292
      6          6           0       -0.665461   -0.119391   -0.144255
      7          8           0       -1.150688    1.168831    0.094254
      8          7           0       -2.027551    1.233988    1.138716
      9          8           0       -2.783383    2.143504    1.062051
     10          8           0       -1.476263    0.823084    2.161263
     11          8           0       -0.996988   -0.511349   -1.434889
     12          7           0       -2.279501   -0.889589   -1.590464
     13          8           0       -2.509242   -1.243560   -2.648291
     14          8           0       -2.980563   -0.818007   -0.668566
     15          8           0        1.389611    0.190139    1.095138
     16          7           0        1.513405   -0.823503    1.965564
     17          8           0        2.108817   -0.534221    2.887486
     18          8           0        1.004004   -1.837449    1.707047
     19          1           0        1.197895   -1.088900   -0.493050
     20          1           0       -1.035272   -0.811064    0.574545
 ---------------------------------------------------------------------
                    Distance matrix (angstroms):
                    1          2          3          4          5
     1  O    0.000000
     2  N    1.140280   0.000000
     3  O    2.077633   1.156971   0.000000
     4  O    2.070793   1.350283   2.154658   0.000000
     5  C    3.313496   2.314495   2.505865   1.386736   0.000000
     6  C    4.379882   3.576217   3.971613   2.326471   1.524570
     7  O    4.572246   4.009919   4.660050   2.671721   2.411576
     8  N    5.857376   5.255456   5.803178   3.949145   3.445761
     9  O    6.463603   6.027421   6.708796   4.724702   4.466389
    10  O    6.124912   5.380691   5.721762   4.195263   3.420751
    11  O    4.436114   3.782826   4.256621   2.667286   2.290402
    12  N    5.717185   5.120719   5.586786   3.983510   3.535384
    13  O    6.080979   5.596513   6.072531   4.607388   4.338939
    14  O    6.465915   5.810480   6.249045   4.568849   3.933517
    15  O    3.816139   2.827742   2.787575   2.222844   1.388748
    16  N    4.958052   3.888238   3.504696   3.436158   2.311550
    17  O    5.517509   4.522554   4.070525   4.235414   3.302598
    18  O    5.491605   4.368931   3.924879   3.841675   2.514067
    19  H    3.576187   2.501226   2.322859   2.015160   1.063834
    20  H    5.309459   4.404282   4.593651   3.251911   2.133397
                    6          7          8          9         10
     6  C    0.000000
     7  O    1.397085   0.000000
     8  N    2.309315   1.365296   0.000000
     9  O    3.325877   2.133614   1.185065   0.000000
    10  O    2.619365   2.120864   1.232218   2.158781   0.000000
    11  O    1.388984   2.277038   3.275927   4.058836   3.865581
    12  N    2.299968   2.889565   3.467200   4.060712   4.201653
    13  O    3.306581   3.897031   4.551010   5.031301   5.335716
    14  O    2.474402   2.806753   2.895718   3.435762   3.600560
    15  O    2.419757   2.900470   3.573306   4.607668   3.122575
    16  N    3.113610   3.816882   4.177956   5.299231   3.418722
    17  O    4.130395   4.618107   4.826417   5.868224   3.901600
    18  O    3.027566   4.035037   4.352821   5.532477   3.665580
    19  H    2.129249   3.310305   4.296739   5.358857   4.225184
    20  H    1.063883   2.040585   2.342038   3.467423   2.320040
                   11         12         13         14         15
    11  O    0.000000
    12  N    1.346146   0.000000
    13  O    2.072532   1.138892   0.000000
    14  O    2.148455   1.160391   2.079074   0.000000
    15  O    3.548095   4.673399   5.591941   4.819278   0.000000
    16  N    4.238230   5.199600   6.135617   5.209071   1.341803
    17  O    5.322544   6.279782   7.243926   6.215130   2.062636
    18  O    3.954020   4.749044   5.627128   4.749692   2.152729
    19  H    2.457262   3.651893   4.290902   4.190907   2.048179
    20  H    2.032024   2.498307   3.570198   2.308578   2.674600
                   16         17         18         19         20
    16  N    0.000000
    17  O    1.134963   0.000000
    18  O    1.163791   2.076645   0.000000
    19  H    2.492943   3.544781   2.332026   0.000000
    20  H    2.903591   3.913009   2.548465   2.490780   0.000000
 Stoichiometry    C2H2N4O12
 Framework group  C1[X(C2H2N4O12)]
 Deg. of freedom    54
 Full point group                 C1      NOp   1
 Largest Abelian subgroup         C1      NOp   1
 Largest concise Abelian subgroup C1      NOp   1
                         Standard orientation:                         
 ---------------------------------------------------------------------
 Center     Atomic      Atomic             Coordinates (Angstroms)
 Number     Number       Type             X           Y           Z
 ---------------------------------------------------------------------
      1          8           0       -2.601303   -2.418522    1.516741
      2          7           0       -2.403183   -1.672022    0.677857
      3          8           0       -3.095896   -1.334090   -0.185006
      4          8           0       -1.159431   -1.150235    0.741735
      5          6           0       -0.845347   -0.234059   -0.250742
      6          6           0        0.670145   -0.073122   -0.209553
      7          8           0        1.112502    0.213230    1.084344
      8          7           0        1.873367    1.344324    1.160133
      9          8           0        2.622469    1.346436    2.078404
     10          8           0        1.221998    2.303607    0.743173
     11          8           0        1.140616   -1.320916   -0.598067
     12          7           0        2.436687   -1.339619   -0.961329
     13          8           0        2.780924   -2.366714   -1.312967
     14          8           0        3.035613   -0.348974   -0.881217
     15          8           0       -1.507753    0.941887    0.076352
     16          7           0       -1.710995    1.795992   -0.938356
     17          8           0       -2.403736    2.649440   -0.655732
     18          8           0       -1.165419    1.594314   -1.946365
     19          1           0       -1.134596   -0.615146   -1.200926
     20          1           0        0.969991    0.681805   -0.896593
 ---------------------------------------------------------------------
 Rotational constants (GHZ):           0.5100085           0.3462134           0.2761369
 Standard basis: 6-31G(d) (6D, 7F)
 There are   274 symmetry adapted cartesian basis functions of A   symmetry.
 There are   274 symmetry adapted basis functions of A   symmetry.
   274 basis functions,   512 primitive gaussians,   274 cartesian basis functions
    69 alpha electrons       69 beta electrons
       nuclear repulsion energy      1569.4196669816 Hartrees.
 NAtoms=   20 NActive=   20 NUniq=   20 SFac= 1.00D+00 NAtFMM=   60 NAOKFM=F Big=F
 Integral buffers will be    131072 words long.
 Raffenetti 1 integral format.
 Two-electron integral symmetry is turned on.
 One-electron integrals computed using PRISM.
 NBasis=   274 RedAO= T EigKep=  1.51D-03  NBF=   274
 NBsUse=   274 1.00D-06 EigRej= -1.00D+00 NBFU=   274
 Initial guess from the checkpoint file:  "C:\g16w\Scratch\Gau-20860.chk"
 B after Tr=     0.000000    0.000000    0.000000
         Rot=    0.999730   -0.017898   -0.014764    0.001064 Ang=  -2.66 deg.
 ExpMin= 1.61D-01 ExpMax= 5.48D+03 ExpMxC= 8.25D+02 IAcc=3 IRadAn=         5 AccDes= 0.00D+00
 Harris functional with IExCor=  205 and IRadAn=       5 diagonalized for initial guess.
 HarFok:  IExCor=  205 AccDes= 0.00D+00 IRadAn=         5 IDoV= 1 UseB2=F ITyADJ=14
 ICtDFT=  3500011 ScaDFX=  1.000000  1.000000  1.000000  1.000000
 FoFCou: FMM=F IPFlag=           0 FMFlag=      100000 FMFlg1=           0
         NFxFlg=           0 DoJE=T BraDBF=F KetDBF=T FulRan=T
         wScrn=  0.000000 ICntrl=       500 IOpCl=  0 I1Cent=   200000004 NGrid=           0
         NMat0=    1 NMatS0=      1 NMatT0=    0 NMatD0=    1 NMtDS0=    0 NMtDT0=    0
 Petite list used in FoFCou.
 Requested convergence on RMS density matrix=1.00D-08 within 128 cycles.
 Requested convergence on MAX density matrix=1.00D-06.
 Requested convergence on             energy=1.00D-06.
 No special actions if energy rises.
 Integral accuracy reduced to 1.0D-05 until final iterations.
 Initial convergence to 1.0D-05 achieved.  Increase integral accuracy.
 SCF Done:  E(RHF) =  -1192.28629941     A.U. after   18 cycles
            NFock= 18  Conv=0.56D-08     -V/T= 2.0017
 Calling FoFJK, ICntrl=      2127 FMM=F ISym2X=0 I1Cent= 0 IOpClX= 0 NMat=1 NMatS=1 NMatT=0.
 ***** Axes restored to original set *****
 -------------------------------------------------------------------
 Center     Atomic                   Forces (Hartrees/Bohr)
 Number     Number              X              Y              Z
 -------------------------------------------------------------------
      1        8           0.015384739    0.050872828   -0.041455264
      2        7          -0.027994173   -0.001972222    0.007925531
      3        8           0.026047718   -0.043899309    0.022933033
      4        8          -0.008613863    0.000183915    0.008482676
      5        6          -0.007683041    0.005723361   -0.013010430
      6        6           0.012505999    0.004745044   -0.000746969
      7        8          -0.023106356   -0.023149270   -0.024970736
      8        7           0.088886951    0.093295116    0.070939142
      9        8          -0.010456169   -0.051487611   -0.010631034
     10        8          -0.057602481   -0.019719146   -0.032040026
     11        8           0.004522395    0.002365856    0.003961612
     12        7           0.027934474    0.009314912    0.005781070
     13        8          -0.013848867   -0.020829011   -0.063588611
     14        8          -0.028772575    0.005044770    0.046196312
     15        8          -0.004874228    0.006041170   -0.005725788
     16        7          -0.008739553    0.019114459   -0.024992040
     17        8           0.040195096    0.018199052    0.061993647
     18        8          -0.024642388   -0.042190603   -0.019670797
     19        1           0.002907185   -0.008650324    0.002714491
     20        1          -0.002050862   -0.003002986    0.005904180
 -------------------------------------------------------------------
 Cartesian Forces:  Max     0.093295116 RMS     0.031227794

 GradGradGradGradGradGradGradGradGradGradGradGradGradGradGradGradGradGrad
 Berny optimization.
 Using GEDIIS/GDIIS optimizer.
 FormGI is forming the generalized inverse of G from B-inverse, IUseBI=4.
 Internal  Forces:  Max     0.076082349 RMS     0.021007954
 Search for a local minimum.
 Step number   3 out of a maximum of   90
 All quantities printed in internal units (Hartrees-Bohrs-Radians)
 Mixed Optimization -- RFO/linear search
 Update second derivatives using D2CorX and points    2    3
 ITU=  0  1  0
 Use linear search instead of GDIIS.
     Eigenvalues ---    0.00230   0.00587   0.01145   0.01157   0.01171
     Eigenvalues ---    0.01182   0.01238   0.01322   0.01347   0.02867
     Eigenvalues ---    0.02917   0.02926   0.02932   0.05346   0.05546
     Eigenvalues ---    0.06619   0.06826   0.08992   0.09353   0.17812
     Eigenvalues ---    0.18374   0.20032   0.20349   0.22846   0.24420
     Eigenvalues ---    0.24998   0.24999   0.25000   0.25000   0.25000
     Eigenvalues ---    0.25000   0.25000   0.25000   0.25000   0.25217
     Eigenvalues ---    0.26625   0.33640   0.33913   0.38057   0.38943
     Eigenvalues ---    0.39790   0.40455   0.41291   0.41625   0.43106
     Eigenvalues ---    0.43855   0.44085   0.44930   0.90359   0.90970
     Eigenvalues ---    0.91403   0.92541   0.92840   1.06740
 RFO step:  Lambda=-8.59878835D-02 EMin= 2.30005462D-03
 Quartic linear search produced a step of  0.03446.
 Iteration  1 RMS(Cart)=  0.04986117 RMS(Int)=  0.03679402
 Iteration  2 RMS(Cart)=  0.02851098 RMS(Int)=  0.01069460
 Iteration  3 RMS(Cart)=  0.00531581 RMS(Int)=  0.00893193
 Iteration  4 RMS(Cart)=  0.00016349 RMS(Int)=  0.00893018
 Iteration  5 RMS(Cart)=  0.00000382 RMS(Int)=  0.00893018
 Iteration  6 RMS(Cart)=  0.00000010 RMS(Int)=  0.00893018
 Variable       Old X    -DE/DX   Delta X   Delta X   Delta X     New X
                                 (Linear)    (Quad)   (Total)
    R1        2.15482   0.06738  -0.00376   0.06450   0.06074   2.21556
    R2        2.18636   0.05549  -0.00318   0.05420   0.05101   2.23737
    R3        2.55166   0.01573  -0.00261   0.02943   0.02681   2.57848
    R4        2.62055   0.00645  -0.00229   0.01359   0.01131   2.63186
    R5        2.88102   0.00193  -0.00166   0.00566   0.00400   2.88502
    R6        2.62435   0.01138  -0.00162   0.02227   0.02065   2.64501
    R7        2.01035   0.00773  -0.00160   0.01824   0.01664   2.02699
    R8        2.64011   0.00038  -0.00135   0.00153   0.00019   2.64029
    R9        2.62480   0.01069  -0.00197   0.02157   0.01960   2.64440
   R10        2.01045   0.00665  -0.00149   0.01573   0.01423   2.02468
   R11        2.58004   0.00930  -0.00383   0.01821   0.01438   2.59441
   R12        2.23945  -0.03216  -0.01006  -0.06759  -0.07765   2.16179
   R13        2.32856  -0.04578  -0.00825  -0.09093  -0.09918   2.22937
   R14        2.54385   0.01715  -0.00271   0.03194   0.02923   2.57308
[...]
 1844,0.00114903,-0.00588354,-0.00226428,0.00297765,0.00628238,-0.00253
 970,-0.00476053,0.02115904,0.00972539,-0.05499221,0.01851853,-0.169503
 98,0.04035810,-0.36504709,1.20996517,-0.00223637,-0.00113624,0.0014778
 2,0.00825124,0.00106882,-0.00287411,-0.00380481,0.00061375,0.00018175,
 -0.00414037,-0.00001045,0.00001705,0.00526904,0.01299689,0.01366845,0.
 01201955,-0.07025849,-0.01563194,0.03329889,0.03108778,-0.17839709,-0.
 05049039,-0.23428529,0.76193641,-0.00078743,-0.00081656,0.00082284,0.0
 0227217,0.00101861,-0.00152152,-0.00071132,-0.00025716,0.00038183,-0.0
 0179764,-0.00058975,0.00083499,0.00222274,0.00192588,0.00031181,0.0043
 8840,-0.01261241,0.00123698,-0.02582914,0.06812872,0.04263033,-0.27932
 325,0.27005374,0.02847373,0.27657460,0.00115455,0.00154895,-0.00134952
 ,-0.00297347,-0.00221961,0.00246197,0.00080743,0.00075404,-0.00074178,
 0.00264776,0.00115756,-0.00133707,-0.00325701,-0.00372710,0.00065954,0
 .00256964,0.01058503,0.00318611,0.04655092,-0.03147222,-0.04438484,0.2
 8227959,-0.62552284,-0.03012778,-0.39031152,0.77052753,0.00055989,0.00
 038689,-0.00042942,-0.00186659,-0.00044701,0.00080761,0.00083077,0.000
 00810,-0.00013602,0.00091405,0.00015529,-0.00005042,-0.00141220,-0.004
 44843,-0.00291897,0.00383202,0.01524540,-0.00101481,0.05718174,-0.0811
 3319,-0.01862368,0.01602417,-0.00346765,-0.15450630,-0.04608180,0.0036
 9372,0.15386758,-0.00045638,-0.00051759,0.00050433,0.00132359,0.000694
 34,-0.00106108,-0.00032804,-0.00017434,0.00032403,-0.00098963,-0.00052
 565,0.00084762,0.00112787,-0.00008575,-0.00318777,0.00251396,-0.000696
 93,0.00030927,0.02268225,-0.01295985,0.03530554,-0.13817071,0.04959895
 ,-0.01886068,0.02434904,0.06006469,-0.03212810,0.09223920,0.00049772,0
 .00089184,-0.00073228,-0.00073779,-0.00114031,0.00114466,-0.00013309,0
 .00057807,-0.00044203,0.00191622,0.00094560,-0.00114453,-0.00202177,0.
 00145793,0.00309127,0.00457483,-0.01892060,-0.00096374,-0.01288021,0.0
 2922250,0.02948164,0.04347648,-0.40583673,0.26976101,0.05996319,-0.122
 91556,0.07356927,-0.09505899,0.50655333,0.00061350,-0.00008526,-0.0001
 4928,-0.00270824,0.00048889,0.00030981,0.00143355,-0.00070508,0.000261
 57,0.00151184,-0.00028357,0.00036119,-0.00280262,-0.00170907,-0.006064
 79,-0.00558956,0.01976332,-0.00195898,0.03298962,0.02967017,-0.0892181
 3,-0.00962148,0.25034760,-0.42592647,-0.03182038,0.07222736,0.02429730
 ,0.00856837,-0.36340480,0.50497590,-0.00165277,-0.00170479,0.00170268,
 0.00593691,0.00290593,-0.00343211,-0.00162624,-0.00056704,0.00091947,-
 0.00417251,-0.00255273,-0.00120578,-0.00835274,-0.00724645,-0.04833888
 ,-0.12663626,-0.00623309,-0.01984310,0.01594689,-0.00568021,0.00576449
 ,-0.00769100,0.00202126,0.00993922,0.00284316,-0.00257881,-0.00217623,
 0.00156451,0.00069938,-0.00256934,0.44935606,-0.00045927,-0.00002636,0
 .00016445,0.00240697,-0.00017689,-0.00074791,-0.00091895,0.00053451,0.
 00011951,-0.00188994,-0.00010065,-0.00129163,-0.00409420,-0.00112546,-
 0.00851141,-0.01514300,-0.06999660,-0.01773853,0.01031998,-0.02670062,
 -0.06454928,-0.01586376,-0.00933184,0.01576941,0.00571814,-0.00270424,
 -0.00401611,0.00105123,0.00550720,-0.00491927,0.10099114,0.14590666,-0
 .00083742,-0.00084852,0.00099912,0.00254050,0.00109681,-0.00173050,-0.
 00068515,-0.00026086,0.00057104,-0.00107043,-0.00020551,0.00143903,-0.
 00585336,-0.00165419,-0.01298700,0.00674281,-0.00299457,-0.26745613,0.
 01221681,-0.03313965,-0.03486890,-0.01465232,0.00095045,0.00951777,0.0
 0588013,-0.00511757,-0.00304369,0.00342599,-0.00277040,-0.00419140,0.0
 4268779,0.09960486,0.53969935,0.00253058,0.00201137,-0.00219519,-0.009
 20515,-0.00256818,0.00452013,0.00293153,0.00004471,-0.00080345,0.00562
 758,0.00193330,-0.00044481,-0.00672763,-0.00500337,0.00084860,-0.01429
 227,-0.03119862,-0.07139764,-0.01478419,0.01654377,0.01948244,0.019960
 64,-0.00074500,-0.01492492,-0.00727031,0.00588930,0.00418284,-0.005026
 71,-0.00103724,0.00679583,-0.18116672,-0.02422460,0.02268611,0.7413797
 8,0.00104781,0.00054321,-0.00080185,-0.00370377,-0.00021401,0.00157468
 ,0.00127626,-0.00035114,-0.00027429,0.00243608,0.00050262,-0.00075061,
 -0.00317250,0.00073638,0.00157852,-0.01398142,-0.01596284,-0.02131336,
 -0.00296215,0.00244188,0.00583636,0.00499068,-0.00075825,-0.00909425,-
 0.00163091,0.00159728,0.00209704,-0.00124668,-0.00123719,0.00323815,-0
 .01979750,-0.09277818,-0.00973582,0.09354576,0.38545448,0.00192263,0.0
 0171644,-0.00242626,-0.00586527,-0.00127974,0.00448228,0.00173537,0.00
 003981,-0.00100154,0.00678013,0.00161907,-0.00222273,-0.00366759,-0.00
 110775,-0.00925145,-0.06822777,-0.01471067,0.00716575,0.00752570,0.001
 61875,0.00374839,-0.00000198,-0.01248169,-0.00648470,-0.00135836,0.003
 70124,0.00089540,0.00043109,0.00440638,0.00039797,0.03781561,-0.011063
 65,-0.17930178,-0.10452076,0.16109604,1.39793717,-0.00080962,-0.000690
 67,0.00077284,0.00262215,0.00079860,-0.00143322,-0.00081337,-0.0000981
 7,0.00031403,-0.00171718,-0.00046968,0.00050076,0.00346788,0.00044663,
 -0.00275030,-0.00916675,0.00428000,0.01617211,0.00335294,-0.00428753,-
 0.00465656,-0.00451634,0.00121819,0.00407015,0.00176165,-0.00166036,-0
 .00103989,0.00103671,-0.00013505,-0.00142088,-0.04555940,-0.03799038,-
 0.09985225,-0.18529449,-0.03730190,-0.10978542,0.19148046,-0.00046262,
 -0.00026427,0.00038848,0.00151123,0.00005744,-0.00073956,-0.00051529,0
 .00013283,0.00016110,-0.00111554,-0.00020723,0.00045097,0.00211337,-0.
 00023910,-0.00169020,-0.00485417,0.00715584,0.00508189,0.00107449,-0.0
 0085803,-0.00036177,-0.00116811,0.00122143,0.00149980,0.00050257,-0.00
 069832,-0.00041617,0.00025648,-0.00035675,-0.00052461,-0.03118849,0.01
 032205,-0.03868855,-0.04127386,-0.15750970,-0.13548449,0.06755737,0.10
 054093,-0.00121610,-0.00111521,0.00148783,0.00354307,0.00097333,-0.002
 72426,-0.00107876,-0.00013247,0.00066236,-0.00330785,-0.00076357,0.001
 54037,0.00434460,0.00002321,-0.00211052,-0.00176260,0.00315190,0.00885
 144,-0.00083244,-0.00282038,-0.00301613,-0.00170357,0.00623822,0.00357
 770,0.00134285,-0.00235136,-0.00068950,-0.00010862,-0.00232389,-0.0003
 4361,-0.05795631,-0.02623860,-0.03517632,-0.14005977,-0.14493214,-0.71
 548419,0.15505416,0.19453451,0.90392783,-0.00091544,-0.00062449,0.0006
 6229,0.00340324,0.00057807,-0.00128139,-0.00105036,0.00012799,0.000144
 36,-0.00276771,-0.00072116,-0.00020993,0.00338815,0.00026147,0.0023376
 4,-0.00575172,0.01026135,0.01897253,0.00430105,-0.00508445,-0.00525891
 ,-0.00701197,-0.00006046,0.00437416,0.00247244,-0.00189017,-0.00124657
 ,0.00200620,0.00073308,-0.00202567,-0.09126416,-0.02573333,0.04370051,
 -0.35805055,-0.02332985,0.23941944,0.04712041,0.00913690,0.04518970,0.
 41111388,-0.00025289,-0.00011306,0.00018083,0.00094691,0.00003364,-0.0
 0035298,-0.00034399,0.00010226,0.00005191,-0.00062982,-0.00006723,0.00
 013749,0.00071137,-0.00012466,0.00025366,0.00216163,-0.00076738,0.0030
 1374,-0.00405927,-0.00194651,-0.00318506,-0.00035874,0.00018816,0.0046
 0514,-0.00006174,0.00003197,-0.00069372,0.00009940,0.00062174,-0.00105
 986,-0.02590737,0.02700888,0.01148323,-0.02077519,-0.12557026,-0.00014
 817,0.00988979,0.04180145,-0.02245370,0.04016499,0.05952368,-0.0004760
 8,-0.00044621,0.00075251,0.00076068,-0.00004027,-0.00117802,-0.0002334
 9,-0.00004616,0.00033520,-0.00221683,-0.00029881,0.00146878,0.00108384
 ,-0.00115952,0.00170129,0.00023308,-0.00452380,-0.01717464,-0.00608972
 ,0.00120951,0.00187504,0.00264300,0.00657215,-0.00024698,-0.00029697,-
 0.00099703,0.00040783,-0.00130529,-0.00276956,0.00131637,0.03900645,0.
 01009626,0.02366373,0.26324312,0.00694443,-0.49473833,0.04652477,-0.02
 314955,-0.16070985,-0.34135894,0.00930742,0.63801309,0.00160352,-0.001
 76696,0.00015742,-0.00797753,0.00752274,-0.00118982,0.00274460,-0.0028
 4475,0.00534236,0.01240304,0.00255958,-0.00138488,-0.09320158,-0.02777
 677,-0.04094596,-0.00497741,-0.01213729,-0.04189691,0.00120753,-0.0012
 6720,0.00084714,0.00346694,-0.00443542,0.00000815,-0.00108140,0.001927
 45,0.00032044,-0.00353550,0.00186363,0.00007071,-0.01617907,-0.0030213
 5,-0.00292101,0.00725110,0.00338953,-0.00136813,-0.00290467,-0.0016006
 9,-0.00250672,-0.00191814,-0.00058842,0.00085193,0.14512661,-0.0025940
 8,-0.00125091,0.00053316,0.01143628,-0.00037004,-0.00337811,-0.0025020
 0,0.00210999,0.00047430,0.00340832,0.00420847,0.05258189,-0.01821206,-
 0.15754820,-0.05538502,-0.00188416,-0.00022645,-0.00482672,0.00128153,
 0.00211473,0.00150489,-0.00330152,0.00133786,0.00136744,0.00036627,-0.
 00040095,-0.00029108,0.00131826,0.00001842,-0.00030735,0.00030824,0.00
 159889,0.00035387,-0.00034774,-0.00020215,-0.00041269,0.00031261,0.000
 20762,0.00046126,0.00021666,0.00025593,0.00029288,0.03441161,0.4321086
 3,0.00571521,0.00332875,-0.00267030,-0.02245942,-0.00142934,0.00545803
 ,0.00583269,-0.00234046,-0.00126818,0.00713172,0.01610691,-0.07009775,
 -0.05149085,-0.09262903,-0.17352213,-0.00195249,-0.00775432,-0.0245798
 8,-0.00277505,0.00227286,0.00635104,0.00254917,0.00198440,-0.01100659,
 -0.00090137,-0.00006225,0.00224519,0.00134279,-0.00182157,0.00485627,-
 0.01182730,-0.00291590,-0.00006033,0.00849157,0.00320100,-0.00056525,-
 0.00279694,-0.00132079,-0.00198877,-0.00299688,-0.00081384,0.00117887,
 0.15214829,-0.02291528,0.53869658,-0.00272542,-0.00034402,0.00082715,0
 .01187429,-0.00220907,-0.00167532,-0.00408742,0.00185657,-0.00149908,-
 0.00406332,-0.00391450,0.01015332,-0.01519576,0.01479429,-0.01836241,-
 0.00301818,0.00192640,-0.00732885,0.00152969,-0.00238816,-0.00025645,-
 0.00344869,0.00801671,-0.00147509,0.00184485,-0.00415290,-0.00020501,0
 .00216562,-0.00358488,0.00185565,0.00166611,-0.00047316,0.00276734,-0.
 00305697,-0.00107148,-0.00292789,0.00093771,0.00055292,0.00159196,0.00
 083387,0.00014864,0.00090564,-0.09142484,-0.01091774,-0.02666966,0.535
 26646,0.00296511,0.00111150,-0.00147096,-0.01194762,0.00137512,0.00650
 303,0.00274306,-0.00277318,-0.00200240,0.00774105,0.00015801,-0.022438
 88,0.01012903,0.04273592,0.04601690,0.00850103,0.00462747,-0.00772059,
 -0.00216454,-0.00313348,0.00189619,0.00455345,0.00000094,-0.00161085,-
 0.00034273,-0.00030376,0.00060639,-0.00246997,-0.00143913,0.00047835,-
 0.00807690,-0.00378559,-0.00081762,0.00438670,0.00304461,-0.00178270,-
 0.00167055,-0.00101767,-0.00099851,-0.00168227,-0.00113727,0.00117591,
 -0.01399617,-0.21748996,0.01533630,0.24794967,0.99965423,-0.00409257,-
 0.00488026,0.00442963,0.01252796,0.00770064,-0.01045283,-0.00365674,-0
 .00254553,0.00373214,-0.00877817,-0.00600934,0.00495972,-0.01091293,0.
 03728877,-0.06327384,-0.01169226,0.00348827,-0.00024962,0.00789161,-0.
 00451110,-0.00544659,-0.00844584,0.00366640,0.01358950,0.00224921,-0.0
 0239526,-0.00303459,0.00182332,-0.00016092,-0.00563305,0.00976293,0.00
 112195,0.00367678,-0.00938467,-0.00330911,-0.00254045,0.00295801,0.001
 47019,0.00288970,0.00319815,0.00072112,0.00000138,-0.02861087,-0.00030
 670,-0.16037494,0.33988015,0.23077681,0.98993206,0.00140300,0.00069408
 ,-0.00070656,-0.00564666,-0.00021614,0.00126437,0.00179947,-0.00033169
 ,0.00024338,0.00242933,0.00222947,-0.00565026,0.00648908,0.00181725,0.
 00562210,0.00171845,-0.00088229,0.00097639,-0.00113675,0.00119692,0.00
 073676,0.00138048,-0.00169879,-0.00146374,-0.00058910,0.00099062,0.000
 41303,-0.00038102,0.00056413,0.00034321,-0.00122830,-0.00000427,-0.000
 68407,0.00157366,0.00043935,0.00099952,-0.00048733,-0.00023401,-0.0006
 4609,-0.00047981,-0.00005458,-0.00023288,0.00566037,0.00692051,-0.0502
 6958,-0.25433590,-0.09047897,-0.24922355,0.23703424,-0.00026551,0.0001
 1409,0.00004882,0.00138208,-0.00077777,-0.00069857,-0.00023317,0.00063
 220,0.00019015,-0.00090792,0.00040442,0.00335064,-0.00123806,-0.007959
 79,-0.00585323,-0.00098452,-0.00129185,0.00156875,-0.00007752,0.001057
 47,0.00006580,-0.00019295,-0.00060655,-0.00068976,-0.00013348,0.000379
 08,0.00012618,0.00030334,0.00041765,0.00033404,0.00100010,0.00077935,-
 0.00007593,-0.00026872,-0.00048146,0.00060166,0.00014241,0.00012161,-0
 .00000914,0.00015305,0.00022775,-0.00028415,0.02425638,0.02988470,0.05
 724254,-0.10250780,-0.22312029,-0.17978550,0.14321895,0.25128068,0.002
 47245,0.00184805,-0.00180290,-0.00901713,-0.00179318,0.00386769,0.0026
 4238,0.00003758,-0.00050665,0.00452439,0.00368436,-0.00907352,-0.00073
 988,0.00794412,0.01657165,0.00478971,-0.00312420,-0.00152409,-0.003129
 56,0.00271754,0.00267623,0.00325132,-0.00164452,-0.00658637,-0.0010370
 1,0.00116817,0.00144304,-0.00032764,0.00013312,0.00277860,-0.00450170,
 -0.00031592,-0.00151892,0.00425430,0.00128965,0.00134452,-0.00134809,-
 0.00064158,-0.00136811,-0.00141097,-0.00018717,-0.00009230,-0.05385480
 ,0.01692468,-0.10824047,-0.24506484,-0.15189597,-0.59124983,0.35015303
 ,0.21779069,0.71834990,0.00046145,-0.00012118,-0.00005785,-0.00190086,
 0.00065792,-0.00005121,0.00094437,-0.00041747,0.00034858,0.00083106,0.
 00107414,-0.00000174,-0.00144683,-0.00359465,-0.00286454,-0.00222458,-
 0.00257870,0.00255200,0.00018422,0.00197070,-0.00039739,0.00069086,-0.
 00289228,0.00021637,-0.00072847,0.00156896,0.00005648,-0.00028430,0.00
 152913,-0.00057577,-0.00010934,0.00071328,-0.00156145,0.00100768,0.000
 17160,0.00185494,-0.00030807,-0.00020836,-0.00080171,-0.00020196,0.000
 07960,-0.00069738,0.03391144,-0.00391574,0.00553339,-0.17433183,-0.150
 06055,-0.04624153,0.00515696,-0.06475324,-0.05174175,0.13732099,-0.000
 94809,0.00019239,0.00030020,0.00494592,-0.00167537,-0.00277396,-0.0012
 8773,0.00163765,0.00050694,-0.00204029,0.00143838,0.00697312,-0.007561
 47,-0.01352100,-0.02102376,-0.00276551,-0.00256606,0.00218747,0.000836
 40,0.00182901,-0.00039946,-0.00152006,-0.00157975,0.00098126,-0.000174
 36,0.00095539,-0.00016264,0.00053355,0.00131033,-0.00054883,0.00254248
 ,0.00154465,0.00029692,-0.00129740,-0.00126244,0.00103111,0.00048618,0
 .00035244,0.00014878,0.00059350,0.00054130,-0.00058086,-0.00721421,-0.
 09031233,0.04333518,-0.14283317,-0.59687033,-0.08102437,-0.06436031,-0
 .05134433,-0.09415341,0.21885034,0.75091355,0.00117194,0.00118139,-0.0
 0121039,-0.00420515,-0.00219394,0.00232753,0.00129465,0.00065742,-0.00
 039959,0.00118317,0.00518396,-0.00065860,0.00298450,-0.00239032,-0.003
 86320,0.00188944,-0.00176012,0.00125391,-0.00203705,0.00193351,0.00128
 062,0.00171882,-0.00074080,-0.00379539,-0.00052377,0.00051548,0.000842
 03,-0.00021898,-0.00011751,0.00158933,-0.00165275,0.00008660,-0.000890
 35,0.00243699,0.00072032,0.00084262,-0.00066132,-0.00029573,-0.0006139
 2,-0.00088689,-0.00015912,-0.00001195,0.00719943,0.04793709,0.02107726
 ,-0.05128333,-0.10021966,-0.18496339,-0.05215532,-0.09604001,-0.025015
 69,0.09465584,0.13755018,0.19587844,-0.00006160,0.00114530,-0.00044994
 ,0.00276654,-0.00128886,-0.00081745,-0.00677287,-0.00170739,0.00249616
 ,0.00742361,-0.01784310,-0.00053980,-0.12049303,0.12153178,0.03340950,
 -0.00675317,0.03117806,0.00742361,-0.00846035,0.00235499,0.00315880,0.
 00045921,0.00057690,-0.00465347,-0.00055382,0.00074289,0.00122662,0.00
 010267,-0.00075461,0.00111781,0.00149058,-0.00014621,0.00047849,-0.000
 85947,-0.00074922,0.00008532,0.00007360,0.00011531,-0.00006545,0.00043
 184,0.00002400,-0.00039815,0.00701087,-0.01760829,-0.01358785,0.002584
 45,-0.00194164,0.00282793,-0.00092136,-0.00002942,-0.00106366,-0.00031
 554,0.00093131,-0.00120656,0.12203984,-0.00053061,0.00164224,-0.000811
 58,0.00593966,-0.00475625,0.00037666,0.00025280,0.00456649,-0.00177990
 ,0.00391965,-0.02794058,0.00633885,0.10652122,-0.31857618,-0.07148321,
 0.00202035,0.00498306,0.00048249,-0.00334167,0.00202431,0.00112855,0.0
 0044785,-0.00015374,-0.00191490,-0.00032575,0.00049491,0.00053789,-0.0
 0005291,-0.00010564,0.00054493,-0.00111631,0.00008852,-0.00038965,0.00
 132456,0.00077767,0.00073242,-0.00029882,-0.00019730,-0.00041295,-0.00
 041752,-0.00018691,0.00001480,0.00040750,-0.00543482,-0.00948787,-0.00
 040462,-0.00319565,-0.00059327,0.00023829,0.00061730,0.00025685,0.0009
 0180,-0.00039354,0.00723836,-0.11597826,0.34526288,0.00077668,-0.00016
 547,-0.00042165,-0.00562397,0.00106860,0.00155657,0.00312108,-0.000913
 06,-0.00044054,-0.00490715,0.03680661,0.00145900,0.02824118,-0.0701553
 5,-0.07936711,0.00105447,0.00028835,0.00302363,-0.00046713,0.00032560,
 0.00066472,-0.00025226,0.00021748,-0.00074148,-0.00002098,0.00001223,0
 .00015341,0.00016823,-0.00015234,0.00029071,-0.00039584,0.00052787,0.0
 0008732,0.00017846,0.00020820,0.00045184,0.00003102,-0.00004122,-0.000
 11583,0.00000940,-0.00000394,-0.00016012,0.00763710,-0.03469898,-0.025
 13915,-0.00031160,-0.01002555,0.00295713,0.00028461,0.00185069,0.00022
 160,0.00036352,0.00607249,-0.00253554,-0.02969295,0.06915163,0.0981267
 7,-0.00144100,-0.00047218,0.00099800,0.00295821,-0.00235478,-0.0003169
 2,-0.00084234,0.00086837,-0.00024989,-0.00964905,0.00076669,0.00125514
 ,-0.00680704,-0.02331853,0.02538796,-0.11150727,-0.08439652,0.08035196
 ,0.00565317,0.02144878,-0.00940673,0.00269438,0.00131938,-0.00387066,-
 0.00005717,-0.00036957,0.00061436,-0.00193934,0.00052584,0.00383387,0.
 00683428,0.00876170,-0.01500900,0.00347191,0.00165031,-0.00084657,-0.0
 0027630,-0.00019950,0.00097968,-0.00565924,-0.00119432,-0.00194678,0.0
 0281412,0.00130306,-0.00101743,-0.00301474,-0.00413719,-0.00208012,0.0
 0056118,0.00113599,0.00114948,0.00134275,0.00228292,0.00029633,0.00080
 799,0.00049279,-0.00019385,0.11405549,0.00044529,0.00016079,-0.0003321
 9,-0.00087915,0.00059580,0.00015452,0.00025723,-0.00017268,0.00003760,
 0.00232597,0.00090542,-0.00040479,-0.00259897,0.00292510,-0.00098164,-
 0.07132353,-0.20530610,0.14194696,-0.00401736,-0.03850208,0.01753849,-
 0.00186325,-0.00436877,0.00937671,-0.00042074,0.00193287,-0.00135020,-
 0.00013156,0.00442730,-0.00354512,0.00218116,0.01343572,-0.01708730,0.
 00306047,0.00122949,0.00190861,-0.00052867,-0.00056528,-0.00097930,-0.
 00268336,-0.00042348,-0.00131746,0.00031082,-0.00060945,0.00068271,-0.
 00044370,0.00155851,-0.00071280,-0.00004850,-0.00033426,-0.00003886,0.
 00102467,-0.00118994,0.00091292,-0.00055355,0.00048321,-0.00037384,0.0
 7588675,0.22381782,-0.00066005,-0.00036684,0.00056404,0.00117600,-0.00
 048793,-0.00036216,-0.00044795,0.00017328,0.00002511,-0.00333359,-0.00
 042306,0.00102308,0.00273533,-0.00169697,0.00500149,0.06947590,0.14387
 782,-0.20269609,-0.00224435,-0.00809195,0.01014106,-0.00007647,-0.0002
 2294,0.00223097,-0.00060255,0.00123862,-0.00051198,0.00414759,-0.00478
 380,-0.00794932,0.00630072,0.01481727,-0.03842881,0.00661082,0.0024270
 3,-0.00324925,-0.00065296,-0.00023271,0.00140379,-0.00133202,-0.000696
 97,0.00359812,0.00009614,0.00009047,-0.00034950,-0.00092167,-0.0018062
 2,0.00105111,-0.00000432,0.00026634,-0.00027438,-0.00058880,0.00128363
 ,-0.00113374,0.00025104,0.00006990,-0.00007129,-0.07992883,-0.14543499
 ,0.22998778||0.00000224,-0.00001794,-0.00001351,-0.00002682,0.00004568
 ,0.00004696,-0.00000049,-0.00001361,-0.00001537,0.00002913,0.00000626,
 -0.00003913,-0.00000469,-0.00002446,0.00005347,0.00000198,-0.00002261,
 -0.00003037,-0.00000913,0.00000552,0.00003482,0.00001467,-0.00000391,-
 0.00005010,-0.00000961,0.00001242,0.00001533,-0.00000054,-0.00000318,0
 .00001122,0.00000110,0.00000915,-0.00000713,-0.00000812,-0.00000367,0.
 00001230,-0.00000055,-0.00000022,0.00000252,0.00000249,0.00000157,-0.0
 0000681,0.00001245,0.00000820,-0.00003431,-0.00005996,-0.00001215,0.00
 005112,0.00001378,-0.00000915,-0.00002462,0.00002826,0.00001181,-0.000
 00884,0.00000562,0.00000171,-0.00000045,0.00000820,0.00000857,0.000002
 89|||@
 The archive entry for this job was punched.


 LOGIC IS A SYSTEMATIC METHOD OF COMING TO THE
 WRONG CONCLUSION WITH CONFIDENCE.
 Job cpu time:       0 days  0 hours  1 minutes 10.0 seconds.
 Elapsed time:       0 days  0 hours  1 minutes  9.3 seconds.
 File lengths (MBytes):  RWF=    195 Int=      0 D2E=      0 Chk=      7 Scr=      1
 Normal termination of Gaussian 16 at Tue Jun 11 18:43:08 2024.
