 Entering Link 1 = C:\G16W\l1.exe PID=     15724.
  
 Copyright (c) 1988,1990,1992,1993,1995,1998,2003,2009,2016,
            Gaussian, Inc.  All Rights Reserved.
  
 This is part of the Gaussian(R) 16 program.  It is based on
 the Gaussian(R) 09 system (copyright 2009, Gaussian, Inc.),
 the Gaussian(R) 03 system (copyright 2003, Gaussian, Inc.),
 the Gaussian(R) 98 system (copyright 1998, Gaussian, Inc.),
 the Gaussian(R) 94 system (copyright 1995, Gaussian, Inc.),
 the Gaussian 92(TM) system (copyright 1992, Gaussian, Inc.),
 the Gaussian 90(TM) system (copyright 1990, Gaussian, Inc.),
 the Gaussian 88(TM) system (copyright 1988, Gaussian, Inc.),
 the Gaussian 86(TM) system (copyright 1986, Carnegie Mellon
 University), and the Gaussian 82(TM) system (copyright 1983,
 Carnegie Mellon University). Gaussian is a federally registered
 trademark of Gaussian, Inc.
  
 This software contains proprietary and confidential information,
 including trade secrets, belonging to Gaussian, Inc.
  
 This software is provided under written license and may be
 used, copied, transmitted, or stored only in accord with that
 written license.
  
 The following legend is applicable only to US Government
 contracts under FAR:
  
                    RESTRICTED RIGHTS LEGEND
  
 Use, reproduction and disclosure by the US Government is
 subject to restrictions as set forth in subparagraphs (a)
 and (c) of the Commercial Computer Software - Restricted
 Rights clause in FAR 52.227-19.
  
 Gaussian, Inc.
 340 Quinnipiac St., Bldg. 40, Wallingford CT 06492
  
  
 ---------------------------------------------------------------
 Warning -- This program may not be used in any manner that
 competes with the business of Gaussian, Inc. or will provide
 assistance to any competitor of Gaussian, Inc.  The licensee
 of this program is prohibited from giving any competitor of
 Gaussian, Inc. access to this program.  By using this program,
 the user acknowledges that Gaussian, Inc. is engaged in the
 business of creating and licensing software in the field of
 computational chemistry and represents and warrants to the
 licensee that it is not a competitor of Gaussian, Inc. and that
 it will not use this program in any manner prohibited above.
 ---------------------------------------------------------------
  

 Cite this work as:
 Gaussian 16, Revision A.03,
 M. J. Frisch, G. W. Trucks, H. B. Schlegel, G. E. Scuseria, 
 M. A. Robb, J. R. Cheeseman, G. Scalmani, V. Barone, 
 G. A. Petersson, H. Nakatsuji, X. Li, M. Caricato, A. V. Marenich, 
 J. Bloino, B. G. Janesko, R. Gomperts, B. Mennucci, H. P. Hratchian, 
 J. V. Ortiz, A. F. Izmaylov, J. L. Sonnenberg, D. Williams-Young, 
 F. Ding, F. Lipparini, F. Egidi, J. Goings, B. Peng, A. Petrone, 
 T. Henderson, D. Ranasinghe, V. G. Zakrzewski, J. Gao, N. Rega, 
 G. Zheng, W. Liang, M. Hada, M. Ehara, K. Toyota, R. Fukuda, 
 J. Hasegawa, M. Ishida, T. Nakajima, Y. Honda, O. Kitao, H. Nakai, 
 T. Vreven, K. Throssell, J. A. Montgomery, Jr., J. E. Peralta, 
 F. Ogliaro, M. J. Bearpark, J. J. Heyd, E. N. Brothers, K. N. Kudin, 
 V. N. Staroverov, T. A. Keith, R. Kobayashi, J. Normand, 
 K. Raghavachari, A. P. Rendell, J. C. Burant, S. S. Iyengar, 
 J. Tomasi, M. Cossi, J. M. Millam, M. Klene, C. Adamo, R. Cammi, 
 J. W. Ochterski, R. L. Martin, K. Morokuma, O. Farkas, 
 J. B. Foresman, and D. J. Fox, Gaussian, Inc., Wallingford CT, 2016.
 
 ******************************************
 Gaussian 16:  EM64W-G16RevA.03 17-Dec-2016
                28-May-2023 
 ******************************************
 %mem=1GB
 %nproc=4
 Will use up to    4 processors via shared memory.
 --------------------------
 #p B3LYP/6-31G(d) opt freq
 --------------------------
 1/18=20,19=15,26=3,38=1/1,3;
 2/9=110,12=2,17=6,18=5,40=1/2;
 3/5=1,6=6,7=1,11=2,25=1,30=1,71=1,74=-5/1,2,3;
 4//1;
 5/5=2,38=5/2;
 6/7=2,8=2,9=2,10=2,28=1/1;
 7//1,2,3,16;
 1/18=20,19=15,26=3/3(2);
 2/9=110/2;
 99//99;
 2/9=110/2;
 3/5=1,6=6,7=1,11=2,25=1,30=1,71=1,74=-5/1,2,3;
 4/5=5,16=3,69=1/1;
 5/5=2,38=5/2;
 7//1,2,3,16;
 1/18=20,19=15,26=3/3(-5);
 2/9=110/2;
 6/7=2,8=2,9=2,10=2,19=2,28=1/1;
 99/9=1/99;
 Leave Link    1 at Sun May 28 08:49:42 2023, MaxMem=   134217728 cpu:               0.0 elap:               0.1
 (Enter C:\G16W\l101.exe)
 -------------------
 Title Card Required
 -------------------
 Symbolic Z-matrix:
 Charge =  0 Multiplicity = 1
 C                     0.97288  -0.02577   0.09274 
 C                     0.46621  -1.39402  -0.33339 
 O                     0.93954  -2.3779    0.57454 
 H                     0.61622   0.19603   1.07686 
 H                     0.61622   0.7156   -0.59141 
 H                     2.04288  -0.02577   0.09274 
 H                    -0.60379  -1.39402  -0.33339 
 H                     0.82288  -1.61582  -1.31751 
 H                     1.93954  -2.3779    0.57454 
 
 ITRead=  0  0  0  0  0  0  0  0  0
 MicOpt= -1 -1 -1 -1 -1 -1 -1 -1 -1
 NAtoms=      9 NQM=        9 NQMF=       0 NMMI=      0 NMMIF=      0
                NMic=       0 NMicF=      0.
                    Isotopes and Nuclear Properties:
 (Nuclear quadrupole moments (NQMom) in fm**2, nuclear magnetic moments (NMagM)
  in nuclear magnetons)

  Atom         1           2           3           4           5           6           7           8           9
 IAtWgt=          12          12          16           1           1           1           1           1           1
 AtmWgt=  12.0000000  12.0000000  15.9949146   1.0078250   1.0078250   1.0078250   1.0078250   1.0078250   1.0078250
 NucSpn=           0           0           0           1           1           1           1           1           1
 AtZEff=   0.0000000   0.0000000   0.0000000   0.0000000   0.0000000   0.0000000   0.0000000   0.0000000   0.0000000
 NQMom=    0.0000000   0.0000000   0.0000000   0.0000000   0.0000000   0.0000000   0.0000000   0.0000000   0.0000000
 NMagM=    0.0000000   0.0000000   0.0000000   2.7928460   2.7928460   2.7928460   2.7928460   2.7928460   2.7928460
 AtZNuc=   6.0000000   6.0000000   8.0000000   1.0000000   1.0000000   1.0000000   1.0000000   1.0000000   1.0000000
 Leave Link  101 at Sun May 28 08:49:43 2023, MaxMem=   134217728 cpu:               1.0 elap:               0.2
 (Enter C:\G16W\l103.exe)

 GradGradGradGradGradGradGradGradGradGradGradGradGradGradGradGradGradGrad
 Berny optimization.
 Initialization pass.
                           ----------------------------
                           !    Initial Parameters    !
                           ! (Angstroms and Degrees)  !
 --------------------------                            --------------------------
 ! Name  Definition              Value          Derivative Info.                !
 --------------------------------------------------------------------------------
 ! R1    R(1,2)                  1.52           estimate D2E/DX2                !
 ! R2    R(1,4)                  1.07           estimate D2E/DX2                !
 ! R3    R(1,5)                  1.07           estimate D2E/DX2                !
 ! R4    R(1,6)                  1.07           estimate D2E/DX2                !
 ! R5    R(2,3)                  1.42           estimate D2E/DX2                !
 ! R6    R(2,7)                  1.07           estimate D2E/DX2                !
 ! R7    R(2,8)                  1.07           estimate D2E/DX2                !
 ! R8    R(3,9)                  1.0            estimate D2E/DX2                !
 ! A1    A(2,1,4)              109.4712         estimate D2E/DX2                !
 ! A2    A(2,1,5)              109.4712         estimate D2E/DX2                !
 ! A3    A(2,1,6)              109.4713         estimate D2E/DX2                !
 ! A4    A(4,1,5)              109.4718         estimate D2E/DX2                !
 ! A5    A(4,1,6)              109.4709         estimate D2E/DX2                !
 ! A6    A(5,1,6)              109.4709         estimate D2E/DX2                !
 ! A7    A(1,2,3)              109.4714         estimate D2E/DX2                !
 ! A8    A(1,2,7)              109.4713         estimate D2E/DX2                !
 ! A9    A(1,2,8)              109.4709         estimate D2E/DX2                !
 ! A10   A(3,2,7)              109.4711         estimate D2E/DX2                !
 ! A11   A(3,2,8)              109.4712         estimate D2E/DX2                !
 ! A12   A(7,2,8)              109.4714         estimate D2E/DX2                !
 ! A13   A(2,3,9)              109.4711         estimate D2E/DX2                !
 ! D1    D(4,1,2,3)            -59.9997         estimate D2E/DX2                !
 ! D2    D(4,1,2,7)             60.0004         estimate D2E/DX2                !
 ! D3    D(4,1,2,8)           -179.9995         estimate D2E/DX2                !
 ! D4    D(5,1,2,3)            179.9996         estimate D2E/DX2                !
 ! D5    D(5,1,2,7)            -60.0004         estimate D2E/DX2                !
 ! D6    D(5,1,2,8)             59.9997         estimate D2E/DX2                !
 ! D7    D(6,1,2,3)             60.0            estimate D2E/DX2                !
 ! D8    D(6,1,2,7)            180.0            estimate D2E/DX2                !
 ! D9    D(6,1,2,8)            -59.9999         estimate D2E/DX2                !
 ! D10   D(1,2,3,9)            -59.9998         estimate D2E/DX2                !
 ! D11   D(7,2,3,9)            180.0            estimate D2E/DX2                !
 ! D12   D(8,2,3,9)             59.9999         estimate D2E/DX2                !
 --------------------------------------------------------------------------------
 Trust Radius=3.00D-01 FncErr=1.00D-07 GrdErr=1.00D-06 EigMax=2.50D+02 EigMin=1.00D-04
 Number of steps in this run=     43 maximum allowed number of steps=    100.
 GradGradGradGradGradGradGradGradGradGradGradGradGradGradGradGradGradGrad

 Leave Link  103 at Sun May 28 08:49:43 2023, MaxMem=   134217728 cpu:               0.0 elap:               0.1
 (Enter C:\G16W\l202.exe)
                          Input orientation:                          
 ---------------------------------------------------------------------
 Center     Atomic      Atomic             Coordinates (Angstroms)
 Number     Number       Type             X           Y           Z
 ---------------------------------------------------------------------
      1          6           0        0.972880   -0.025770    0.092740
      2          6           0        0.466210   -1.394020   -0.333390
      3          8           0        0.939540   -2.377900    0.574540
      4          1           0        0.616220    0.196030    1.076860
      5          1           0        0.616220    0.715600   -0.591410
      6          1           0        2.042880   -0.025770    0.092740
      7          1           0       -0.603790   -1.394020   -0.333390
      8          1           0        0.822880   -1.615820   -1.317510
      9          1           0        1.939540   -2.377900    0.574540
 ---------------------------------------------------------------------
                    Distance matrix (angstroms):
                    1          2          3          4          5
     1  C    0.000000
     2  C    1.520003   0.000000
     3  O    2.401199   1.419999   0.000000
     4  H    1.069997   2.130626   2.642343   0.000000
     5  H    1.069999   2.130628   3.321704   1.747306   0.000000
     6  H    1.070000   2.130630   2.642349   1.747297   1.747298
     7  H    2.130630   1.070000   2.043092   2.450610   2.450611
     8  H    2.130625   1.070000   2.043093   3.009737   2.450602
     9  H    2.588258   1.990743   1.000000   2.937451   3.560949
                    6          7          8          9
     6  H    0.000000
     7  H    3.009744   0.000000
     8  H    2.450605   1.747305   0.000000
     9  H    2.403191   2.874175   2.325414   0.000000
 Stoichiometry    C2H6O
 Framework group  C1[X(C2H6O)]
 Deg. of freedom    21
 Full point group                 C1      NOp   1
 Largest Abelian subgroup         C1      NOp   1
 Largest concise Abelian subgroup C1      NOp   1
                         Standard orientation:                         
 ---------------------------------------------------------------------
 Center     Atomic      Atomic             Coordinates (Angstroms)
 Number     Number       Type             X           Y           Z
 ---------------------------------------------------------------------
      1          6           0       -1.187594   -0.256230   -0.022462
      2          6           0        0.077778    0.582806    0.050082
      3          8           0        1.211762   -0.255474   -0.116544
      4          1           0       -1.239641   -0.741546   -0.974645
      5          1           0       -2.042071    0.375434    0.103102
      6          1           0       -1.171819   -0.993219    0.753101
      7          1           0        0.062003    1.319796   -0.725481
      8          1           0        0.129825    1.068116    1.002273
      9          1           0        1.226505   -0.944249    0.608281
 ---------------------------------------------------------------------
 Rotational constants (GHZ):          33.5199138           9.6015349           8.3667187
 Leave Link  202 at Sun May 28 08:49:43 2023, MaxMem=   134217728 cpu:               0.0 elap:               0.0
 (Enter C:\G16W\l301.exe)
 Standard basis: 6-31G(d) (6D, 7F)
 Ernie: Thresh=  0.10000D-02 Tol=  0.10000D-05 Strict=F.
 There are    57 symmetry adapted cartesian basis functions of A   symmetry.
 There are    57 symmetry adapted basis functions of A   symmetry.
    57 basis functions,   108 primitive gaussians,    57 cartesian basis functions
    13 alpha electrons       13 beta electrons
       nuclear repulsion energy        82.3521988206 Hartrees.
 IExCor=  402 DFT=T Ex+Corr=B3LYP ExCW=0 ScaHFX=  0.200000
 ScaDFX=  0.800000  0.720000  1.000000  0.810000 ScalE2=  1.000000  1.000000
 IRadAn=      5 IRanWt=     -1 IRanGd=            0 ICorTp=0 IEmpDi=  4
 NAtoms=    9 NActive=    9 NUniq=    9 SFac= 1.00D+00 NAtFMM=   60 NAOKFM=F Big=F
 Integral buffers will be    131072 words long.
 Raffenetti 2 integral format.
 Two-electron integral symmetry is turned on.
 Leave Link  301 at Sun May 28 08:49:43 2023, MaxMem=   134217728 cpu:               0.0 elap:               0.3
 (Enter C:\G16W\l302.exe)
 NPDir=0 NMtPBC=     1 NCelOv=     1 NCel=       1 NClECP=     1 NCelD=      1
         NCelK=      1 NCelE2=     1 NClLst=     1 CellRange=     0.0.
 One-electron integrals computed using PRISM.
 One-electron integral symmetry used in STVInt
 NBasis=    57 RedAO= T EigKep=  5.84D-03  NBF=    57
 NBsUse=    57 1.00D-06 EigRej= -1.00D+00 NBFU=    57
 Precomputing XC quadrature grid using
 IXCGrd= 4 IRadAn=           5 IRanWt=          -1 IRanGd=           0 AccXCQ= 0.00D+00.
 Generated NRdTot=       0 NPtTot=           0 NUsed=           0 NTot=          32
 NSgBfM=    57    57    57    57    57 MxSgAt=     9 MxSgA2=     9.
 Leave Link  302 at Sun May 28 08:49:44 2023, MaxMem=   134217728 cpu:               1.0 elap:               0.7
 (Enter C:\G16W\l303.exe)
 DipDrv:  MaxL=1.
 Leave Link  303 at Sun May 28 08:49:45 2023, MaxMem=   134217728 cpu:               1.0 elap:               0.4
 (Enter C:\G16W\l401.exe)
 ExpMin= 1.61D-01 ExpMax= 5.48D+03 ExpMxC= 8.25D+02 IAcc=3 IRadAn=         5 AccDes= 0.00D+00
 Harris functional with IExCor=  402 and IRadAn=       5 diagonalized for initial guess.
 HarFok:  IExCor=  402 AccDes= 0.00D+00 IRadAn=         5 IDoV= 1 UseB2=F ITyADJ=14
 ICtDFT=  3500011 ScaDFX=  1.000000  1.000000  1.000000  1.000000
 FoFCou: FMM=F IPFlag=           0 FMFlag=      100000 FMFlg1=           0
         NFxFlg=           0 DoJE=T BraDBF=F KetDBF=T FulRan=T
         wScrn=  0.000000 ICntrl=       500 IOpCl=  0 I1Cent=   200000004 NGrid=           0
         NMat0=    1 NMatS0=      1 NMatT0=    0 NMatD0=    1 NMtDS0=    0 NMtDT0=    0
 Petite list used in FoFCou.
 Harris En= -155.082149650435    
 JPrj=0 DoOrth=F DoCkMO=F.
 Leave Link  401 at Sun May 28 08:49:46 2023, MaxMem=   134217728 cpu:               1.0 elap:               1.1
 (Enter C:\G16W\l502.exe)
 Keep R1 ints in memory in canonical form, NReq=4886539.
 FoFCou: FMM=F IPFlag=           0 FMFlag=           0 FMFlg1=           0
         NFxFlg=           0 DoJE=F BraDBF=F KetDBF=F FulRan=T
         wScrn=  0.000000 ICntrl=       600 IOpCl=  0 I1Cent=           0 NGrid=           0
         NMat0=    1 NMatS0=   1653 NMatT0=    0 NMatD0=    1 NMtDS0=    0 NMtDT0=    0
 Symmetry not used in FoFCou.
 Two-electron integral symmetry not used.
 Closed shell SCF:
 Using DIIS extrapolation, IDIIS=  1040.
 NGot=   134217728 LenX=   132842983 LenY=   132839293
 Requested convergence on RMS density matrix=1.00D-08 within 128 cycles.
 Requested convergence on MAX density matrix=1.00D-06.
 Requested convergence on             energy=1.00D-06.
 No special actions if energy rises.
 Integral accuracy reduced to 1.0D-05 until final iterations.

 Cycle   1  Pass 0  IDiag  1:
 E= -154.894547273418    
 DIIS: error= 4.73D-02 at cycle   1 NSaved=   1.
 NSaved= 1 IEnMin= 1 EnMin= -154.894547273418     IErMin= 1 ErrMin= 4.73D-02
 ErrMax= 4.73D-02  0.00D+00 EMaxC= 1.00D-01 BMatC= 1.38D-01 BMatP= 1.38D-01
 IDIUse=3 WtCom= 5.27D-01 WtEn= 4.73D-01
 Coeff-Com:  0.100D+01
 Coeff-En:   0.100D+01
 Coeff:      0.100D+01
 Gap=     0.248 Goal=   None    Shift=    0.000
 GapD=    0.248 DampG=1.000 DampE=0.500 DampFc=0.5000 IDamp=-1.
 Damping current iteration by 5.00D-01
 RMSDP=1.38D-02 MaxDP=1.44D-01              OVMax= 1.66D-01

 Cycle   2  Pass 0  IDiag  1:
 E= -154.953522926278     Delta-E=       -0.058975652860 Rises=F Damp=T
 DIIS: error= 9.23D-03 at cycle   2 NSaved=   2.
 NSaved= 2 IEnMin= 2 EnMin= -154.953522926278     IErMin= 2 ErrMin= 9.23D-03
 ErrMax= 9.23D-03  0.00D+00 EMaxC= 1.00D-01 BMatC= 6.45D-03 BMatP= 1.38D-01
 IDIUse=3 WtCom= 9.08D-01 WtEn= 9.23D-02
 Coeff-Com:  0.995D-01 0.901D+00
 Coeff-En:   0.139D+00 0.861D+00
 Coeff:      0.103D+00 0.897D+00
 Gap=     0.329 Goal=   None    Shift=    0.000
 RMSDP=2.08D-03 MaxDP=1.97D-02 DE=-5.90D-02 OVMax= 8.96D-02

 Cycle   3  Pass 0  IDiag  1:
 E= -155.027464392171     Delta-E=       -0.073941465894 Rises=F Damp=F
 DIIS: error= 4.08D-03 at cycle   3 NSaved=   3.
 NSaved= 3 IEnMin= 3 EnMin= -155.027464392171     IErMin= 3 ErrMin= 4.08D-03
 ErrMax= 4.08D-03  0.00D+00 EMaxC= 1.00D-01 BMatC= 2.11D-03 BMatP= 6.45D-03
 IDIUse=3 WtCom= 9.59D-01 WtEn= 4.08D-02
 Coeff-Com:  0.210D-01 0.341D+00 0.638D+00
 Coeff-En:   0.000D+00 0.000D+00 0.100D+01
 Coeff:      0.202D-01 0.327D+00 0.653D+00
 Gap=     0.326 Goal=   None    Shift=    0.000
 RMSDP=9.72D-04 MaxDP=1.26D-02 DE=-7.39D-02 OVMax= 1.28D-02

 Cycle   4  Pass 0  IDiag  1:
 E= -155.028600637344     Delta-E=       -0.001136245172 Rises=F Damp=F
 DIIS: error= 2.03D-03 at cycle   4 NSaved=   4.
 NSaved= 4 IEnMin= 4 EnMin= -155.028600637344     IErMin= 4 ErrMin= 2.03D-03
 ErrMax= 2.03D-03  0.00D+00 EMaxC= 1.00D-01 BMatC= 6.94D-04 BMatP= 2.11D-03
 IDIUse=3 WtCom= 9.80D-01 WtEn= 2.03D-02
 Coeff-Com:  0.212D-02 0.551D-01 0.368D+00 0.575D+00
 Coeff-En:   0.000D+00 0.000D+00 0.257D+00 0.743D+00
 Coeff:      0.208D-02 0.540D-01 0.366D+00 0.578D+00
 Gap=     0.328 Goal=   None    Shift=    0.000
 RMSDP=3.77D-04 MaxDP=5.04D-03 DE=-1.14D-03 OVMax= 4.86D-03

 Cycle   5  Pass 0  IDiag  1:
 E= -155.029144420550     Delta-E=       -0.000543783206 Rises=F Damp=F
 DIIS: error= 2.43D-04 at cycle   5 NSaved=   5.
 NSaved= 5 IEnMin= 5 EnMin= -155.029144420550     IErMin= 5 ErrMin= 2.43D-04
 ErrMax= 2.43D-04  0.00D+00 EMaxC= 1.00D-01 BMatC= 6.93D-06 BMatP= 6.94D-04
 IDIUse=3 WtCom= 9.98D-01 WtEn= 2.43D-03
 Coeff-Com:  0.298D-03-0.121D-02 0.773D-01 0.172D+00 0.752D+00
 Coeff-En:   0.000D+00 0.000D+00 0.000D+00 0.000D+00 0.100D+01
 Coeff:      0.297D-03-0.121D-02 0.771D-01 0.171D+00 0.753D+00
 Gap=     0.328 Goal=   None    Shift=    0.000
 RMSDP=4.07D-05 MaxDP=3.30D-04 DE=-5.44D-04 OVMax= 5.53D-04

 Cycle   6  Pass 0  IDiag  1:
 E= -155.029150142290     Delta-E=       -0.000005721740 Rises=F Damp=F
 DIIS: error= 3.86D-05 at cycle   6 NSaved=   6.
 NSaved= 6 IEnMin= 6 EnMin= -155.029150142290     IErMin= 6 ErrMin= 3.86D-05
 ErrMax= 3.86D-05  0.00D+00 EMaxC= 1.00D-01 BMatC= 1.42D-07 BMatP= 6.93D-06
 IDIUse=1 WtCom= 1.00D+00 WtEn= 0.00D+00
 Coeff-Com:  0.186D-03-0.107D-02 0.240D-01 0.555D-01 0.274D+00 0.647D+00
 Coeff:      0.186D-03-0.107D-02 0.240D-01 0.555D-01 0.274D+00 0.647D+00
 Gap=     0.328 Goal=   None    Shift=    0.000
 RMSDP=7.04D-06 MaxDP=1.02D-04 DE=-5.72D-06 OVMax= 1.07D-04

 Initial convergence to 1.0D-05 achieved.  Increase integral accuracy.
 Cycle   7  Pass 1  IDiag  1:
 E= -155.029154696453     Delta-E=       -0.000004554163 Rises=F Damp=F
 DIIS: error= 1.44D-05 at cycle   1 NSaved=   1.
 NSaved= 1 IEnMin= 1 EnMin= -155.029154696453     IErMin= 1 ErrMin= 1.44D-05
 ErrMax= 1.44D-05  0.00D+00 EMaxC= 1.00D-01 BMatC= 1.57D-08 BMatP= 1.57D-08
 IDIUse=1 WtCom= 1.00D+00 WtEn= 0.00D+00
 Coeff-Com:  0.100D+01
 Coeff:      0.100D+01
 Gap=     0.328 Goal=   None    Shift=    0.000
 RMSDP=7.04D-06 MaxDP=1.02D-04 DE=-4.55D-06 OVMax= 5.49D-05

 Cycle   8  Pass 1  IDiag  1:
 E= -155.029154691683     Delta-E=        0.000000004770 Rises=F Damp=F
 DIIS: error= 1.70D-05 at cycle   2 NSaved=   2.
 NSaved= 2 IEnMin= 1 EnMin= -155.029154696453     IErMin= 1 ErrMin= 1.44D-05
 ErrMax= 1.70D-05  0.00D+00 EMaxC= 1.00D-01 BMatC= 2.09D-08 BMatP= 1.57D-08
 IDIUse=1 WtCom= 1.00D+00 WtEn= 0.00D+00
 Coeff-Com:  0.536D+00 0.464D+00
 Coeff:      0.536D+00 0.464D+00
 Gap=     0.328 Goal=   None    Shift=    0.000
 RMSDP=2.15D-06 MaxDP=3.09D-05 DE= 4.77D-09 OVMax= 3.00D-05

 Cycle   9  Pass 1  IDiag  1:
 E= -155.029154711324     Delta-E=       -0.000000019640 Rises=F Damp=F
 DIIS: error= 3.46D-07 at cycle   3 NSaved=   3.
 NSaved= 3 IEnMin= 3 EnMin= -155.029154711324     IErMin= 3 ErrMin= 3.46D-07
 ErrMax= 3.46D-07  0.00D+00 EMaxC= 1.00D-01 BMatC= 1.40D-11 BMatP= 1.57D-08
 IDIUse=1 WtCom= 1.00D+00 WtEn= 0.00D+00
 Coeff-Com:  0.758D-01 0.739D-01 0.850D+00
 Coeff:      0.758D-01 0.739D-01 0.850D+00
 Gap=     0.328 Goal=   None    Shift=    0.000
 RMSDP=8.99D-08 MaxDP=8.00D-07 DE=-1.96D-08 OVMax= 1.13D-06

 Cycle  10  Pass 1  IDiag  1:
 E= -155.029154711336     Delta-E=       -0.000000000012 Rises=F Damp=F
 DIIS: error= 1.18D-07 at cycle   4 NSaved=   4.
 NSaved= 4 IEnMin= 4 EnMin= -155.029154711336     IErMin= 4 ErrMin= 1.18D-07
 ErrMax= 1.18D-07  0.00D+00 EMaxC= 1.00D-01 BMatC= 1.94D-12 BMatP= 1.40D-11
 IDIUse=1 WtCom= 1.00D+00 WtEn= 0.00D+00
 Coeff-Com: -0.263D-02 0.543D-03 0.265D+00 0.738D+00
 Coeff:     -0.263D-02 0.543D-03 0.265D+00 0.738D+00
 Gap=     0.328 Goal=   None    Shift=    0.000
 RMSDP=3.18D-08 MaxDP=3.26D-07 DE=-1.23D-11 OVMax= 4.02D-07

 Cycle  11  Pass 1  IDiag  1:
 E= -155.029154711337     Delta-E=       -0.000000000002 Rises=F Damp=F
 DIIS: error= 7.25D-08 at cycle   5 NSaved=   5.
 NSaved= 5 IEnMin= 5 EnMin= -155.029154711337     IErMin= 5 ErrMin= 7.25D-08
 ErrMax= 7.25D-08  0.00D+00 EMaxC= 1.00D-01 BMatC= 6.62D-13 BMatP= 1.94D-12
 IDIUse=1 WtCom= 1.00D+00 WtEn= 0.00D+00
 Coeff-Com: -0.503D-02-0.306D-02 0.115D+00 0.442D+00 0.451D+00
 Coeff:     -0.503D-02-0.306D-02 0.115D+00 0.442D+00 0.451D+00
 Gap=     0.328 Goal=   None    Shift=    0.000
 RMSDP=1.13D-08 MaxDP=1.67D-07 DE=-1.53D-12 OVMax= 1.62D-07

 Cycle  12  Pass 1  IDiag  1:
 E= -155.029154711338     Delta-E=        0.000000000000 Rises=F Damp=F
 DIIS: error= 7.66D-09 at cycle   6 NSaved=   6.
 NSaved= 6 IEnMin= 6 EnMin= -155.029154711338     IErMin= 6 ErrMin= 7.66D-09
 ErrMax= 7.66D-09  0.00D+00 EMaxC= 1.00D-01 BMatC= 4.90D-15 BMatP= 6.62D-13
 IDIUse=1 WtCom= 1.00D+00 WtEn= 0.00D+00
 Coeff-Com: -0.149D-02-0.101D-02 0.223D-01 0.104D+00 0.133D+00 0.743D+00
 Coeff:     -0.149D-02-0.101D-02 0.223D-01 0.104D+00 0.133D+00 0.743D+00
 Gap=     0.328 Goal=   None    Shift=    0.000
 RMSDP=1.44D-09 MaxDP=1.83D-08 DE=-5.68D-14 OVMax= 1.96D-08

 SCF Done:  E(RB3LYP) =  -155.029154711     A.U. after   12 cycles
            NFock= 12  Conv=0.14D-08     -V/T= 2.0081
 KE= 1.537776133302D+02 PE=-5.267003598158D+02 EE= 1.355413929536D+02
 Leave Link  502 at Sun May 28 08:49:53 2023, MaxMem=   134217728 cpu:               7.0 elap:               7.1
 (Enter C:\G16W\l601.exe)
 Copying SCF densities to generalized density rwf, IOpCl= 0 IROHF=0.

 **********************************************************************

            Population analysis using the SCF density.

 **********************************************************************

 Orbital symmetries:
       Occupied  (A) (A) (A) (A) (A) (A) (A) (A) (A) (A) (A) (A)
                 (A)
       Virtual   (A) (A) (A) (A) (A) (A) (A) (A) (A) (A) (A) (A)
                 (A) (A) (A) (A) (A) (A) (A) (A) (A) (A) (A) (A)
                 (A) (A) (A) (A) (A) (A) (A) (A) (A) (A) (A) (A)
                 (A) (A) (A) (A) (A) (A) (A) (A)
 The electronic state is 1-A.
 Alpha  occ. eigenvalues --  -19.13589 -10.22065 -10.16684  -1.00270  -0.74715
 Alpha  occ. eigenvalues --   -0.62291  -0.49814  -0.45669  -0.42513  -0.38085
 Alpha  occ. eigenvalues --   -0.37268  -0.31648  -0.25790
 Alpha virt. eigenvalues --    0.06983   0.12328   0.15549   0.16904   0.17592
 Alpha virt. eigenvalues --    0.19725   0.22382   0.24423   0.52220   0.55000
 Alpha virt. eigenvalues --    0.55854   0.58343   0.65824   0.66844   0.79907
 Alpha virt. eigenvalues --    0.87546   0.89285   0.90940   0.92122   0.97187
 Alpha virt. eigenvalues --    0.98516   1.02721   1.03538   1.14794   1.37646
 Alpha virt. eigenvalues --    1.44035   1.50664   1.58682   1.76364   1.83995
 Alpha virt. eigenvalues --    1.93493   1.96653   2.09769   2.14885   2.25123
 Alpha virt. eigenvalues --    2.28968   2.39289   2.42262   2.49617   2.63311
 Alpha virt. eigenvalues --    2.82492   3.72576   4.18868   4.40253
          Condensed to atoms (all electrons):
               1          2          3          4          5          6
     1  C    5.149646   0.375999  -0.057579   0.377302   0.339822   0.377114
     2  C    0.375999   4.743012   0.265315  -0.032697  -0.024992  -0.033988
     3  O   -0.057579   0.265315   8.243755   0.003791   0.004611  -0.002285
     4  H    0.377302  -0.032697   0.003791   0.549273  -0.025716  -0.033468
     5  H    0.339822  -0.024992   0.004611  -0.025716   0.591098  -0.027949
     6  H    0.377114  -0.033988  -0.002285  -0.033468  -0.027949   0.579313
     7  H   -0.043338   0.388406  -0.035182  -0.007134  -0.000369   0.005884
     8  H   -0.055652   0.371967  -0.038085   0.006762   0.002392  -0.007522
     9  H   -0.005428  -0.028696   0.231041  -0.000914  -0.000059   0.006977
               7          8          9
     1  C   -0.043338  -0.055652  -0.005428
     2  C    0.388406   0.371967  -0.028696
     3  O   -0.035182  -0.038085   0.231041
     4  H   -0.007134   0.006762  -0.000914
     5  H   -0.000369   0.002392  -0.000059
     6  H    0.005884  -0.007522   0.006977
     7  H    0.580115  -0.047683   0.007094
     8  H   -0.047683   0.649440  -0.006581
     9  H    0.007094  -0.006581   0.416028
 Mulliken charges:
               1
     1  C   -0.457887
     2  C   -0.024327
     3  O   -0.615382
     4  H    0.162800
     5  H    0.141163
     6  H    0.135924
     7  H    0.152209
     8  H    0.124962
     9  H    0.380538
 Sum of Mulliken charges =   0.00000
 Mulliken charges with hydrogens summed into heavy atoms:
               1
     1  C   -0.018000
     2  C    0.252844
     3  O   -0.234843
 Electronic spatial extent (au):  <R**2>=            189.6280
 Charge=              0.0000 electrons
 Dipole moment (field-independent basis, Debye):
    X=             -1.1214    Y=             -0.2218    Z=              1.1924  Tot=              1.6518
 Quadrupole moment (field-independent basis, Debye-Ang):
   XX=            -22.0686   YY=            -18.1101   ZZ=            -18.8516
   XY=             -1.1726   XZ=              1.8400   YZ=             -1.5212
 Traceless Quadrupole moment (field-independent basis, Debye-Ang):
   XX=             -2.3918   YY=              1.5667   ZZ=              0.8251
   XY=             -1.1726   XZ=              1.8400   YZ=             -1.5212
 Octapole moment (field-independent basis, Debye-Ang**2):
  XXX=              2.3041  YYY=             -2.2619  ZZZ=              0.2508  XYY=              3.3638
  XXY=             -1.3563  XXZ=              2.1629  XZZ=              2.2192  YZZ=             -0.9449
  YYZ=              0.8446  XYZ=             -1.7196
 Hexadecapole moment (field-independent basis, Debye-Ang**3):
 XXXX=           -153.9725 YYYY=            -54.4230 ZZZZ=            -32.1803 XXXY=             -6.5954
 XXXZ=              2.8887 YYYX=             -4.2974 YYYZ=             -2.6153 ZZZX=              1.4969
 ZZZY=             -1.0333 XXYY=            -31.6186 XXZZ=            -29.7975 YYZZ=            -13.2030
 XXYZ=             -1.9947 YYXZ=              1.4139 ZZXY=             -0.7565
 N-N= 8.235219882060D+01 E-N=-5.267003589610D+02  KE= 1.537776133302D+02
 No NMR shielding tensors so no spin-rotation constants.
 Leave Link  601 at Sun May 28 08:49:54 2023, MaxMem=   134217728 cpu:               1.0 elap:               0.2
 (Enter C:\G16W\l701.exe)
 ... and contract with generalized density number  0.
 Compute integral first derivatives.
 Leave Link  701 at Sun May 28 08:49:54 2023, MaxMem=   134217728 cpu:               0.0 elap:               0.2
 (Enter C:\G16W\l702.exe)
 L702 exits ... SP integral derivatives will be done elsewhere.
 Leave Link  702 at Sun May 28 08:49:54 2023, MaxMem=   134217728 cpu:               0.0 elap:               0.1
 (Enter C:\G16W\l703.exe)
 Integral derivatives from FoFJK, PRISM(SPDF).
 Compute integral first derivatives, UseDBF=F ICtDFT=           0.
 Calling FoFJK, ICntrl=      2127 FMM=F ISym2X=0 I1Cent= 0 IOpClX= 0 NMat=1 NMatS=1 NMatT=0.
 FoFJK:  IHMeth= 1 ICntrl=    2127 DoSepK=F KAlg= 0 I1Cent=           0 FoldK=F
 IRaf=         0 NMat=       1 IRICut=       1 DoRegI=T DoRafI=F ISym2E= 0 IDoP0=0 IntGTp=1.
 FoFCou: FMM=F IPFlag=           0 FMFlag=      100000 FMFlg1=         800
         NFxFlg=           0 DoJE=F BraDBF=F KetDBF=F FulRan=T
         wScrn=  0.000000 ICntrl=      2127 IOpCl=  0 I1Cent=           0 NGrid=           0
         NMat0=    1 NMatS0=      1 NMatT0=    0 NMatD0=    1 NMtDS0=    0 NMtDT0=    0
 Symmetry not used in FoFCou.
 Leave Link  703 at Sun May 28 08:49:57 2023, MaxMem=   134217728 cpu:               3.0 elap:               2.3
 (Enter C:\G16W\l716.exe)
 Dipole        =-4.41188495D-01-8.72507170D-02 4.69131507D-01
 ***** Axes restored to original set *****
 -------------------------------------------------------------------
 Center     Atomic                   Forces (Hartrees/Bohr)
 Number     Number              X              Y              Z
 -------------------------------------------------------------------
      1        6          -0.011249745   -0.012771242   -0.008130860
      2        6           0.027309447    0.008560684    0.017812340
      3        8           0.015074025   -0.012744747    0.007363537
      4        1          -0.004257600    0.005059002    0.015977134
      5        1          -0.003548889    0.016452182   -0.010268677
      6        1           0.018657027    0.003260344    0.000283134
      7        1          -0.016434329   -0.007498373    0.002498642
      8        1           0.001918780   -0.003779553   -0.021984127
      9        1          -0.027468716    0.003461704   -0.003551123
 -------------------------------------------------------------------
 Cartesian Forces:  Max     0.027468716 RMS     0.013046167
 Leave Link  716 at Sun May 28 08:49:57 2023, MaxMem=   134217728 cpu:               0.0 elap:               0.1
 (Enter C:\G16W\l103.exe)

 GradGradGradGradGradGradGradGradGradGradGradGradGradGradGradGradGradGrad
 Berny optimization.
 FormGI is forming the generalized inverse of G from B-inverse, IUseBI=4.
 Internal  Forces:  Max     0.027468232 RMS     0.009927643
 Search for a local minimum.
 Step number   1 out of a maximum of   43
 All quantities printed in internal units (Hartrees-Bohrs-Radians)
 RMS Force = .99276D-02 SwitMx=.10000D-02 MixMth= 1
 Mixed Optimization -- RFO/linear search
 Second derivative matrix not updated -- first step.
 ITU=  0
     Eigenvalues ---    0.00501   0.01427   0.05305   0.05892   0.05892
     Eigenvalues ---    0.05985   0.11284   0.13728   0.16000   0.16000
     Eigenvalues ---    0.16000   0.16000   0.22073   0.30366   0.37230
     Eigenvalues ---    0.37230   0.37230   0.37230   0.37230   0.42460
     Eigenvalues ---    0.47688
 RFO step:  Lambda=-1.08005324D-02 EMin= 5.01345278D-03
 Linear search not attempted -- first point.
 Iteration  1 RMS(Cart)=  0.05485177 RMS(Int)=  0.00130359
 Iteration  2 RMS(Cart)=  0.00117729 RMS(Int)=  0.00083906
 Iteration  3 RMS(Cart)=  0.00000082 RMS(Int)=  0.00083906
 ITry= 1 IFail=0 DXMaxC= 1.40D-01 DCOld= 1.00D+10 DXMaxT= 3.00D-01 DXLimC= 3.00D+00 Rises=F
 Variable       Old X    -DE/DX   Delta X   Delta X   Delta X     New X
                                 (Linear)    (Quad)   (Total)
    R1        2.87239   0.01007   0.00000   0.03202   0.03202   2.90441
    R2        2.02200   0.01716   0.00000   0.04480   0.04480   2.06680
    R3        2.02200   0.01915   0.00000   0.04998   0.04998   2.07199
    R4        2.02201   0.01866   0.00000   0.04870   0.04870   2.07071
    R5        2.68341   0.00474   0.00000   0.01088   0.01088   2.69429
    R6        2.02201   0.01643   0.00000   0.04290   0.04290   2.06490
    R7        2.02201   0.02164   0.00000   0.05649   0.05649   2.07850
    R8        1.88973  -0.02747   0.00000  -0.05632  -0.05632   1.83340
    A1        1.91063   0.00128   0.00000   0.00771   0.00755   1.91819
    A2        1.91063   0.00568   0.00000   0.03480   0.03451   1.94514
    A3        1.91063   0.00298   0.00000   0.01571   0.01554   1.92618
    A4        1.91064  -0.00297   0.00000  -0.01391  -0.01418   1.89646
    A5        1.91063  -0.00258   0.00000  -0.01820  -0.01821   1.89241
    A6        1.91063  -0.00439   0.00000  -0.02610  -0.02639   1.88423
    A7        1.91064   0.01413   0.00000   0.06717   0.06581   1.97644
    A8        1.91063   0.00208   0.00000   0.01028   0.01148   1.92211
    A9        1.91063  -0.00201   0.00000   0.01550   0.01328   1.92390
   A10        1.91063  -0.01185   0.00000  -0.09315  -0.09278   1.81785
   A11        1.91063  -0.00096   0.00000   0.03028   0.02747   1.93810
   A12        1.91064  -0.00139   0.00000  -0.03008  -0.03010   1.88054
   A13        1.91063  -0.00936   0.00000  -0.05479  -0.05479   1.85584
    D1       -1.04719   0.00412   0.00000   0.06425   0.06480  -0.98240
    D2        1.04720  -0.00047   0.00000  -0.00240  -0.00224   1.04497
    D3       -3.14158  -0.00213   0.00000  -0.02346  -0.02396   3.11764
    D4        3.14159   0.00349   0.00000   0.05526   0.05574  -3.08586
    D5       -1.04720  -0.00109   0.00000  -0.01139  -0.01129  -1.05849
    D6        1.04719  -0.00276   0.00000  -0.03245  -0.03302   1.01418
    D7        1.04720   0.00356   0.00000   0.05630   0.05671   1.10390
    D8        3.14159  -0.00102   0.00000  -0.01035  -0.01033   3.13126
    D9       -1.04720  -0.00268   0.00000  -0.03141  -0.03206  -1.07925
   D10       -1.04719  -0.00071   0.00000  -0.03351  -0.03531  -1.08250
   D11       -3.14159  -0.00465   0.00000  -0.03020  -0.02904   3.11255
   D12        1.04720   0.00490   0.00000   0.04514   0.04578   1.09298
         Item               Value     Threshold  Converged?
 Maximum Force            0.027468     0.000450     NO 
 RMS     Force            0.009928     0.000300     NO 
 Maximum Displacement     0.140456     0.001800     NO 
 RMS     Displacement     0.054723     0.001200     NO 
 Predicted change in Energy=-5.732234D-03
 Lowest energy point so far.  Saving SCF results.
 GradGradGradGradGradGradGradGradGradGradGradGradGradGradGradGradGradGrad

 Leave Link  103 at Sun May 28 08:49:57 2023, MaxMem=   134217728 cpu:               0.0 elap:               0.1
 (Enter C:\G16W\l202.exe)
                          Input orientation:                          
 ---------------------------------------------------------------------
 Center     Atomic      Atomic             Coordinates (Angstroms)
 Number     Number       Type             X           Y           Z
 ---------------------------------------------------------------------
      1          6           0        0.976340   -0.001463    0.087272
      2          6           0        0.503070   -1.404226   -0.325619
      3          8           0        0.911629   -2.425509    0.581491
      4          1           0        0.624730    0.227864    1.097206
      5          1           0        0.599447    0.766761   -0.598279
      6          1           0        2.070955    0.048556    0.081901
      7          1           0       -0.588415   -1.452921   -0.308841
      8          1           0        0.833062   -1.630759   -1.350099
      9          1           0        1.881761   -2.427873    0.570687
 ---------------------------------------------------------------------
                    Distance matrix (angstroms):
                    1          2          3          4          5
     1  C    0.000000
     2  C    1.536947   0.000000
     3  O    2.474760   1.425758   0.000000
     4  H    1.093704   2.168628   2.718209   0.000000
     5  H    1.096448   2.190164   3.417587   1.779247   0.000000
     6  H    1.095770   2.175985   2.777521   1.776109   1.773076
     7  H    2.170736   1.092700   1.997186   2.504741   2.534123
     8  H    2.177422   1.099896   2.090176   3.080127   2.523472
     9  H    2.634566   1.937009   0.970195   2.985010   3.635450
                    6          7          8          9
     6  H    0.000000
     7  H    3.078857   0.000000
     8  H    2.530435   1.771000   0.000000
     9  H    2.531285   2.797476   2.329072   0.000000
 Stoichiometry    C2H6O
 Framework group  C1[X(C2H6O)]
 Deg. of freedom    21
 Full point group                 C1      NOp   1
 RotChk:  IX=0 Diff= 7.17D-02
 Largest Abelian subgroup         C1      NOp   1
 Largest concise Abelian subgroup C1      NOp   1
                         Standard orientation:                         
 ---------------------------------------------------------------------
 Center     Atomic      Atomic             Coordinates (Angstroms)
 Number     Number       Type             X           Y           Z
 ---------------------------------------------------------------------
      1          6           0       -1.226962   -0.236640   -0.021759
      2          6           0        0.088555    0.555000    0.048437
      3          8           0        1.246099   -0.262215   -0.109798
      4          1           0       -1.279994   -0.787780   -0.964956
      5          1           0       -2.097808    0.426029    0.046759
      6          1           0       -1.283773   -0.955615    0.803202
      7          1           0        0.145971    1.263257   -0.781665
      8          1           0        0.136503    1.130795    0.984349
      9          1           0        1.240748   -0.889131    0.630625
 ---------------------------------------------------------------------
 Rotational constants (GHZ):          34.4579791           9.0392792           8.0151382
 Leave Link  202 at Sun May 28 08:49:57 2023, MaxMem=   134217728 cpu:               0.0 elap:               0.0
 (Enter C:\G16W\l301.exe)
 Standard basis: 6-31G(d) (6D, 7F)
 Ernie: Thresh=  0.10000D-02 Tol=  0.10000D-05 Strict=F.
 There are    57 symmetry adapted cartesian basis functions of A   symmetry.
 There are    57 symmetry adapted basis functions of A   symmetry.
    57 basis functions,   108 primitive gaussians,    57 cartesian basis functions
    13 alpha electrons       13 beta electrons
       nuclear repulsion energy        81.2533946294 Hartrees.
 IExCor=  402 DFT=T Ex+Corr=B3LYP ExCW=0 ScaHFX=  0.200000
 ScaDFX=  0.800000  0.720000  1.000000  0.810000 ScalE2=  1.000000  1.000000
 IRadAn=      5 IRanWt=     -1 IRanGd=            0 ICorTp=0 IEmpDi=  4
 NAtoms=    9 NActive=    9 NUniq=    9 SFac= 1.00D+00 NAtFMM=   60 NAOKFM=F Big=F
 Integral buffers will be    131072 words long.
 Raffenetti 2 integral format.
 Two-electron integral symmetry is turned on.
 Leave Link  301 at Sun May 28 08:49:58 2023, MaxMem=   134217728 cpu:               1.0 elap:               0.1
 (Enter C:\G16W\l302.exe)
 NPDir=0 NMtPBC=     1 NCelOv=     1 NCel=       1 NClECP=     1 NCelD=      1
         NCelK=      1 NCelE2=     1 NClLst=     1 CellRange=     0.0.
 One-electron integrals computed using PRISM.
 One-electron integral symmetry used in STVInt
 NBasis=    57 RedAO= T EigKep=  6.25D-03  NBF=    57
 NBsUse=    57 1.00D-06 EigRej= -1.00D+00 NBFU=    57
 Precomputing XC quadrature grid using
 IXCGrd= 4 IRadAn=           5 IRanWt=          -1 IRanGd=           0 AccXCQ= 0.00D+00.
 Generated NRdTot=       0 NPtTot=           0 NUsed=           0 NTot=          32
 NSgBfM=    57    57    57    57    57 MxSgAt=     9 MxSgA2=     9.
 Leave Link  302 at Sun May 28 08:49:58 2023, MaxMem=   134217728 cpu:               0.0 elap:               0.4
 (Enter C:\G16W\l303.exe)
 DipDrv:  MaxL=1.
 Leave Link  303 at Sun May 28 08:49:59 2023, MaxMem=   134217728 cpu:               1.0 elap:               0.9
 (Enter C:\G16W\l401.exe)
 Initial guess from the checkpoint file:  "C:\g16w\Scratch\Gau-15724.chk"
 B after Tr=     0.000000    0.000000    0.000000
         Rot=    0.999813    0.017889    0.003676    0.006420 Ang=   2.22 deg.
 Guess basis will be translated and rotated to current coordinates.
 JPrj=2 DoOrth=T DoCkMO=T.
 Generating alternative initial guess.
 ExpMin= 1.61D-01 ExpMax= 5.48D+03 ExpMxC= 8.25D+02 IAcc=2 IRadAn=         4 AccDes= 0.00D+00
 Harris functional with IExCor=  402 and IRadAn=       4 diagonalized for initial guess.
 HarFok:  IExCor=  402 AccDes= 0.00D+00 IRadAn=         4 IDoV= 1 UseB2=F ITyADJ=14
 ICtDFT=  3500011 ScaDFX=  1.000000  1.000000  1.000000  1.000000
 FoFCou: FMM=F IPFlag=           0 FMFlag=      100000 FMFlg1=           0
         NFxFlg=           0 DoJE=T BraDBF=F KetDBF=T FulRan=T
         wScrn=  0.000000 ICntrl=       500 IOpCl=  0 I1Cent=   200000004 NGrid=           0
         NMat0=    1 NMatS0=      1 NMatT0=    0 NMatD0=    1 NMtDS0=    0 NMtDT0=    0
 Petite list used in FoFCou.
 Harris En= -155.075720896812    
 Leave Link  401 at Sun May 28 08:50:00 2023, MaxMem=   134217728 cpu:               1.0 elap:               0.6
 (Enter C:\G16W\l502.exe)
 Keep R1 ints in memory in canonical form, NReq=4886539.
 FoFCou: FMM=F IPFlag=           0 FMFlag=           0 FMFlg1=           0
         NFxFlg=           0 DoJE=F BraDBF=F KetDBF=F FulRan=T
         wScrn=  0.000000 ICntrl=       600 IOpCl=  0 I1Cent=           0 NGrid=           0
         NMat0=    1 NMatS0=   1653 NMatT0=    0 NMatD0=    1 NMtDS0=    0 NMtDT0=    0
 Symmetry not used in FoFCou.
 Two-electron integral symmetry not used.
 Closed shell SCF:
 Using DIIS extrapolation, IDIIS=  1040.
 NGot=   134217728 LenX=   132842983 LenY=   132839293
 Requested convergence on RMS density matrix=1.00D-08 within 128 cycles.
 Requested convergence on MAX density matrix=1.00D-06.
 Requested convergence on             energy=1.00D-06.
 No special actions if energy rises.
 Integral accuracy reduced to 1.0D-05 until final iterations.

 Cycle   1  Pass 0  IDiag  1:
 E= -155.032184919769    
 DIIS: error= 3.08D-03 at cycle   1 NSaved=   1.
 NSaved= 1 IEnMin= 1 EnMin= -155.032184919769     IErMin= 1 ErrMin= 3.08D-03
 ErrMax= 3.08D-03  0.00D+00 EMaxC= 1.00D-01 BMatC= 1.28D-03 BMatP= 1.28D-03
 IDIUse=3 WtCom= 9.69D-01 WtEn= 3.08D-02
 Coeff-Com:  0.100D+01
 Coeff-En:   0.100D+01
 Coeff:      0.100D+01
 Gap=     1.591 Goal=   None    Shift=    0.000
 GapD=    1.591 DampG=2.000 DampE=1.000 DampFc=2.0000 IDamp=-1.
 RMSDP=1.07D-03 MaxDP=7.45D-03              OVMax= 1.26D-02

 Cycle   2  Pass 0  IDiag  1:
 E= -155.033704478703     Delta-E=       -0.001519558933 Rises=F Damp=F
 DIIS: error= 2.29D-03 at cycle   2 NSaved=   2.
 NSaved= 2 IEnMin= 2 EnMin= -155.033704478703     IErMin= 2 ErrMin= 2.29D-03
 ErrMax= 2.29D-03  0.00D+00 EMaxC= 1.00D-01 BMatC= 4.40D-04 BMatP= 1.28D-03
 IDIUse=3 WtCom= 9.77D-01 WtEn= 2.29D-02
 Coeff-Com:  0.313D+00 0.687D+00
 Coeff-En:   0.000D+00 0.100D+01
 Coeff:      0.306D+00 0.694D+00
 Gap=     0.337 Goal=   None    Shift=    0.000
 RMSDP=5.00D-04 MaxDP=6.34D-03 DE=-1.52D-03 OVMax= 7.15D-03

 Cycle   3  Pass 0  IDiag  1:
 E= -155.033919355779     Delta-E=       -0.000214877076 Rises=F Damp=F
 DIIS: error= 1.30D-03 at cycle   3 NSaved=   3.
 NSaved= 3 IEnMin= 3 EnMin= -155.033919355779     IErMin= 3 ErrMin= 1.30D-03
 ErrMax= 1.30D-03  0.00D+00 EMaxC= 1.00D-01 BMatC= 2.26D-04 BMatP= 4.40D-04
 IDIUse=3 WtCom= 9.87D-01 WtEn= 1.30D-02
 Coeff-Com: -0.108D-01 0.416D+00 0.595D+00
 Coeff-En:   0.000D+00 0.330D+00 0.670D+00
 Coeff:     -0.107D-01 0.415D+00 0.596D+00
 Gap=     0.339 Goal=   None    Shift=    0.000
 RMSDP=2.10D-04 MaxDP=2.79D-03 DE=-2.15D-04 OVMax= 2.69D-03

 Cycle   4  Pass 0  IDiag  1:
 E= -155.034097539106     Delta-E=       -0.000178183327 Rises=F Damp=F
 DIIS: error= 2.94D-04 at cycle   4 NSaved=   4.
 NSaved= 4 IEnMin= 4 EnMin= -155.034097539106     IErMin= 4 ErrMin= 2.94D-04
 ErrMax= 2.94D-04  0.00D+00 EMaxC= 1.00D-01 BMatC= 5.89D-06 BMatP= 2.26D-04
 IDIUse=3 WtCom= 9.97D-01 WtEn= 2.94D-03
 Coeff-Com: -0.144D-01 0.190D+00 0.295D+00 0.529D+00
 Coeff-En:   0.000D+00 0.000D+00 0.000D+00 0.100D+01
 Coeff:     -0.143D-01 0.189D+00 0.294D+00 0.531D+00
 Gap=     0.339 Goal=   None    Shift=    0.000
 RMSDP=4.02D-05 MaxDP=5.12D-04 DE=-1.78D-04 OVMax= 4.95D-04

 Cycle   5  Pass 0  IDiag  1:
 E= -155.034102226408     Delta-E=       -0.000004687302 Rises=F Damp=F
 DIIS: error= 4.45D-05 at cycle   5 NSaved=   5.
 NSaved= 5 IEnMin= 5 EnMin= -155.034102226408     IErMin= 5 ErrMin= 4.45D-05
 ErrMax= 4.45D-05  0.00D+00 EMaxC= 1.00D-01 BMatC= 1.97D-07 BMatP= 5.89D-06
 IDIUse=1 WtCom= 1.00D+00 WtEn= 0.00D+00
 Coeff-Com: -0.410D-02 0.291D-01 0.480D-01 0.188D+00 0.739D+00
 Coeff:     -0.410D-02 0.291D-01 0.480D-01 0.188D+00 0.739D+00
 Gap=     0.339 Goal=   None    Shift=    0.000
 RMSDP=7.60D-06 MaxDP=7.51D-05 DE=-4.69D-06 OVMax= 9.57D-05

 Initial convergence to 1.0D-05 achieved.  Increase integral accuracy.
 Cycle   6  Pass 1  IDiag  1:
 E= -155.034103998337     Delta-E=       -0.000001771929 Rises=F Damp=F
 DIIS: error= 4.16D-06 at cycle   1 NSaved=   1.
 NSaved= 1 IEnMin= 1 EnMin= -155.034103998337     IErMin= 1 ErrMin= 4.16D-06
 ErrMax= 4.16D-06  0.00D+00 EMaxC= 1.00D-01 BMatC= 2.49D-09 BMatP= 2.49D-09
 IDIUse=1 WtCom= 1.00D+00 WtEn= 0.00D+00
 Coeff-Com:  0.100D+01
 Coeff:      0.100D+01
 Gap=     0.339 Goal=   None    Shift=    0.000
 RMSDP=7.60D-06 MaxDP=7.51D-05 DE=-1.77D-06 OVMax= 2.06D-05

 Cycle   7  Pass 1  IDiag  1:
 E= -155.034103999490     Delta-E=       -0.000000001153 Rises=F Damp=F
 DIIS: error= 3.66D-06 at cycle   2 NSaved=   2.
 NSaved= 2 IEnMin= 2 EnMin= -155.034103999490     IErMin= 2 ErrMin= 3.66D-06
 ErrMax= 3.66D-06  0.00D+00 EMaxC= 1.00D-01 BMatC= 1.59D-09 BMatP= 2.49D-09
 IDIUse=1 WtCom= 1.00D+00 WtEn= 0.00D+00
 Coeff-Com:  0.438D+00 0.562D+00
 Coeff:      0.438D+00 0.562D+00
 Gap=     0.339 Goal=   None    Shift=    0.000
 RMSDP=7.29D-07 MaxDP=7.78D-06 DE=-1.15D-09 OVMax= 8.95D-06

 Cycle   8  Pass 1  IDiag  1:
 E= -155.034104000747     Delta-E=       -0.000000001257 Rises=F Damp=F
 DIIS: error= 1.54D-06 at cycle   3 NSaved=   3.
 NSaved= 3 IEnMin= 3 EnMin= -155.034104000747     IErMin= 3 ErrMin= 1.54D-06
 ErrMax= 1.54D-06  0.00D+00 EMaxC= 1.00D-01 BMatC= 1.63D-10 BMatP= 1.59D-09
 IDIUse=1 WtCom= 1.00D+00 WtEn= 0.00D+00
 Coeff-Com:  0.157D+00 0.290D+00 0.553D+00
 Coeff:      0.157D+00 0.290D+00 0.553D+00
 Gap=     0.339 Goal=   None    Shift=    0.000
 RMSDP=1.77D-07 MaxDP=3.07D-06 DE=-1.26D-09 OVMax= 2.29D-06

 Cycle   9  Pass 1  IDiag  1:
 E= -155.034104000865     Delta-E=       -0.000000000118 Rises=F Damp=F
 DIIS: error= 2.18D-07 at cycle   4 NSaved=   4.
 NSaved= 4 IEnMin= 4 EnMin= -155.034104000865     IErMin= 4 ErrMin= 2.18D-07
 ErrMax= 2.18D-07  0.00D+00 EMaxC= 1.00D-01 BMatC= 5.97D-12 BMatP= 1.63D-10
 IDIUse=1 WtCom= 1.00D+00 WtEn= 0.00D+00
 Coeff-Com:  0.215D-01 0.609D-01 0.202D+00 0.716D+00
 Coeff:      0.215D-01 0.609D-01 0.202D+00 0.716D+00
 Gap=     0.339 Goal=   None    Shift=    0.000
 RMSDP=5.12D-08 MaxDP=6.14D-07 DE=-1.18D-10 OVMax= 7.05D-07

 Cycle  10  Pass 1  IDiag  1:
 E= -155.034104000869     Delta-E=       -0.000000000004 Rises=F Damp=F
 DIIS: error= 1.44D-07 at cycle   5 NSaved=   5.
 NSaved= 5 IEnMin= 5 EnMin= -155.034104000869     IErMin= 5 ErrMin= 1.44D-07
 ErrMax= 1.44D-07  0.00D+00 EMaxC= 1.00D-01 BMatC= 1.45D-12 BMatP= 5.97D-12
 IDIUse=1 WtCom= 1.00D+00 WtEn= 0.00D+00
 Coeff-Com: -0.844D-02-0.524D-02 0.333D-01 0.382D+00 0.598D+00
 Coeff:     -0.844D-02-0.524D-02 0.333D-01 0.382D+00 0.598D+00
 Gap=     0.339 Goal=   None    Shift=    0.000
 RMSDP=1.94D-08 MaxDP=2.77D-07 DE=-4.41D-12 OVMax= 2.94D-07

 Cycle  11  Pass 1  IDiag  1:
 E= -155.034104000871     Delta-E=       -0.000000000003 Rises=F Damp=F
 DIIS: error= 1.04D-08 at cycle   6 NSaved=   6.
 NSaved= 6 IEnMin= 6 EnMin= -155.034104000871     IErMin= 6 ErrMin= 1.04D-08
 ErrMax= 1.04D-08  0.00D+00 EMaxC= 1.00D-01 BMatC= 8.38D-15 BMatP= 1.45D-12
 IDIUse=1 WtCom= 1.00D+00 WtEn= 0.00D+00
 Coeff-Com: -0.301D-02-0.378D-02 0.129D-02 0.732D-01 0.149D+00 0.784D+00
 Coeff:     -0.301D-02-0.378D-02 0.129D-02 0.732D-01 0.149D+00 0.784D+00
 Gap=     0.339 Goal=   None    Shift=    0.000
 RMSDP=2.20D-09 MaxDP=1.67D-08 DE=-2.53D-12 OVMax= 2.99D-08

 SCF Done:  E(RB3LYP) =  -155.034104001     A.U. after   11 cycles
            NFock= 11  Conv=0.22D-08     -V/T= 2.0092
 KE= 1.536138241142D+02 PE=-5.243424376897D+02 EE= 1.344411149452D+02
 Leave Link  502 at Sun May 28 08:50:06 2023, MaxMem=   134217728 cpu:               6.0 elap:               6.7
 (Enter C:\G16W\l701.exe)
 ... and contract with generalized density number  0.
 Compute integral first derivatives.
 Leave Link  701 at Sun May 28 08:50:07 2023, MaxMem=   134217728 cpu:               0.0 elap:               0.3
 (Enter C:\G16W\l702.exe)
 L702 exits ... SP integral derivatives will be done elsewhere.
 Leave Link  702 at Sun May 28 08:50:07 2023, MaxMem=   134217728 cpu:               0.0 elap:               0.1
 (Enter C:\G16W\l703.exe)
 Integral derivatives from FoFJK, PRISM(SPDF).
 Compute integral first derivatives, UseDBF=F ICtDFT=           0.
 Calling FoFJK, ICntrl=      2127 FMM=F ISym2X=0 I1Cent= 0 IOpClX= 0 NMat=1 NMatS=1 NMatT=0.
 FoFJK:  IHMeth= 1 ICntrl=    2127 DoSepK=F KAlg= 0 I1Cent=           0 FoldK=F
 IRaf=         0 NMat=       1 IRICut=       1 DoRegI=T DoRafI=F ISym2E= 0 IDoP0=0 IntGTp=1.
 FoFCou: FMM=F IPFlag=           0 FMFlag=      100000 FMFlg1=         800
         NFxFlg=           0 DoJE=F BraDBF=F KetDBF=F FulRan=T
         wScrn=  0.000000 ICntrl=      2127 IOpCl=  0 I1Cent=           0 NGrid=           0
         NMat0=    1 NMatS0=      1 NMatT0=    0 NMatD0=    1 NMtDS0=    0 NMtDT0=    0
 Symmetry not used in FoFCou.
 Leave Link  703 at Sun May 28 08:50:09 2023, MaxMem=   134217728 cpu:               2.0 elap:               2.1
 (Enter C:\G16W\l716.exe)
 Dipole        =-4.56603049D-01-8.40780868D-02 4.74361171D-01
 ***** Axes restored to original set *****
 -------------------------------------------------------------------
 Center     Atomic                   Forces (Hartrees/Bohr)
 Number     Number              X              Y              Z
 -------------------------------------------------------------------
      1        6          -0.001829518   -0.006622541   -0.000656174
      2        6          -0.001910037    0.003137623    0.003417496
      3        8           0.003314667    0.002972559   -0.001472735
      4        1           0.000296604    0.000630662    0.000778956
      5        1          -0.000012444   -0.000681883   -0.000397401
      6        1           0.001349965    0.001133286    0.000253932
      7        1          -0.001561247    0.001235302   -0.002099192
      8        1           0.000054681   -0.000187352   -0.001272783
      9        1           0.000297329   -0.001617656    0.001447900
 -------------------------------------------------------------------
 Cartesian Forces:  Max     0.006622541 RMS     0.002059455
 Leave Link  716 at Sun May 28 08:50:09 2023, MaxMem=   134217728 cpu:               0.0 elap:               0.1
 (Enter C:\G16W\l103.exe)

 GradGradGradGradGradGradGradGradGradGradGradGradGradGradGradGradGradGrad
 Berny optimization.
 Using GEDIIS/GDIIS optimizer.
 FormGI is forming the generalized inverse of G from B-inverse, IUseBI=4.
 Internal  Forces:  Max     0.005122401 RMS     0.001529400
 Search for a local minimum.
 Step number   2 out of a maximum of   43
 All quantities printed in internal units (Hartrees-Bohrs-Radians)
 RMS Force = .15294D-02 SwitMx=.10000D-02 MixMth= 1
 Mixed Optimization -- RFO/linear search
 Update second derivatives using D2CorX and points    1    2
 DE= -4.95D-03 DEPred=-5.73D-03 R= 8.63D-01
 TightC=F SS=  1.41D+00  RLast= 2.33D-01 DXNew= 5.0454D-01 7.0031D-01
 Trust test= 8.63D-01 RLast= 2.33D-01 DXMaxT set to 5.05D-01
 ITU=  1  0
 Use linear search instead of GDIIS.
     Eigenvalues ---    0.00502   0.01427   0.05171   0.05618   0.05775
     Eigenvalues ---    0.05816   0.11959   0.14093   0.15773   0.16000
     Eigenvalues ---    0.16000   0.16782   0.23168   0.30937   0.35238
     Eigenvalues ---    0.37230   0.37230   0.37230   0.37415   0.42451
     Eigenvalues ---    0.47494
 RFO step:  Lambda=-3.12599987D-04 EMin= 5.01665676D-03
 Quartic linear search produced a step of -0.06818.
 Iteration  1 RMS(Cart)=  0.00916361 RMS(Int)=  0.00006974
 Iteration  2 RMS(Cart)=  0.00005089 RMS(Int)=  0.00004772
 Iteration  3 RMS(Cart)=  0.00000000 RMS(Int)=  0.00004772
 ITry= 1 IFail=0 DXMaxC= 2.05D-02 DCOld= 1.00D+10 DXMaxT= 5.05D-01 DXLimC= 3.00D+00 Rises=F
 Variable       Old X    -DE/DX   Delta X   Delta X   Delta X     New X
                                 (Linear)    (Quad)   (Total)
    R1        2.90441  -0.00512  -0.00218  -0.01243  -0.01461   2.88979
    R2        2.06680   0.00076  -0.00305   0.00645   0.00340   2.07020
    R3        2.07199  -0.00023  -0.00341   0.00453   0.00112   2.07310
    R4        2.07071   0.00140  -0.00332   0.00846   0.00514   2.07584
    R5        2.69429   0.00005  -0.00074   0.00121   0.00047   2.69476
    R6        2.06490   0.00147  -0.00292   0.00805   0.00512   2.07003
    R7        2.07850   0.00124  -0.00385   0.00885   0.00500   2.08350
    R8        1.83340   0.00028   0.00384  -0.00517  -0.00133   1.83207
    A1        1.91819   0.00095  -0.00052   0.00727   0.00674   1.92492
    A2        1.94514  -0.00150  -0.00235  -0.00639  -0.00870   1.93644
    A3        1.92618   0.00161  -0.00106   0.01115   0.01009   1.93627
    A4        1.89646   0.00020   0.00097  -0.00077   0.00023   1.89669
    A5        1.89241  -0.00101   0.00124  -0.00536  -0.00418   1.88824
    A6        1.88423  -0.00030   0.00180  -0.00631  -0.00447   1.87977
    A7        1.97644  -0.00307  -0.00449  -0.00485  -0.00926   1.96718
    A8        1.92211  -0.00005  -0.00078   0.00214   0.00129   1.92340
    A9        1.92390   0.00068  -0.00091  -0.00192  -0.00271   1.92119
   A10        1.81785   0.00266   0.00633   0.01464   0.02095   1.83880
   A11        1.93810   0.00075  -0.00187   0.00125  -0.00048   1.93762
   A12        1.88054  -0.00081   0.00205  -0.01084  -0.00881   1.87173
   A13        1.85584   0.00398   0.00374   0.01752   0.02126   1.87709
    D1       -0.98240  -0.00086  -0.00442  -0.00489  -0.00935  -0.99175
    D2        1.04497   0.00053   0.00015   0.01184   0.01196   1.05693
    D3        3.11764  -0.00007   0.00163  -0.00139   0.00025   3.11788
    D4       -3.08586  -0.00078  -0.00380  -0.00462  -0.00845  -3.09430
    D5       -1.05849   0.00061   0.00077   0.01211   0.01287  -1.04562
    D6        1.01418   0.00001   0.00225  -0.00112   0.00116   1.01533
    D7        1.10390  -0.00050  -0.00387   0.00005  -0.00380   1.10010
    D8        3.13126   0.00090   0.00070   0.01679   0.01751  -3.13441
    D9       -1.07925   0.00029   0.00219   0.00355   0.00580  -1.07345
   D10       -1.08250   0.00029   0.00241   0.00432   0.00683  -1.07567
   D11        3.11255   0.00029   0.00198  -0.00501  -0.00309   3.10946
   D12        1.09298  -0.00057  -0.00312  -0.00096  -0.00413   1.08885
         Item               Value     Threshold  Converged?
 Maximum Force            0.005122     0.000450     NO 
 RMS     Force            0.001529     0.000300     NO 
 Maximum Displacement     0.020538     0.001800     NO 
 RMS     Displacement     0.009148     0.001200     NO 
 Predicted change in Energy=-1.814142D-04
 Lowest energy point so far.  Saving SCF results.
 GradGradGradGradGradGradGradGradGradGradGradGradGradGradGradGradGradGrad

 Leave Link  103 at Sun May 28 08:50:09 2023, MaxMem=   134217728 cpu:               0.0 elap:               0.1
 (Enter C:\G16W\l202.exe)
                          Input orientation:                          
 ---------------------------------------------------------------------
 Center     Atomic      Atomic             Coordinates (Angstroms)
 Number     Number       Type             X           Y           Z
 ---------------------------------------------------------------------
      1          6           0        0.975580   -0.009169    0.089008
      2          6           0        0.498488   -1.401961   -0.324524
      3          8           0        0.919389   -2.419609    0.581419
      4          1           0        0.628059    0.226552    1.100832
      5          1           0        0.596366    0.755893   -0.599739
      6          1           0        2.072526    0.048464    0.081105
      7          1           0       -0.596111   -1.443826   -0.319589
      8          1           0        0.829464   -1.625769   -1.352126
      9          1           0        1.888820   -2.430145    0.579333
 ---------------------------------------------------------------------
                    Distance matrix (angstroms):
                    1          2          3          4          5
     1  C    0.000000
     2  C    1.529213   0.000000
     3  O    2.460863   1.426008   0.000000
     4  H    1.095501   2.168060   2.712347   0.000000
     5  H    1.097039   2.177535   3.403423   1.781333   0.000000
     6  H    1.098488   2.178500   2.769734   1.777088   1.772865
     7  H    2.166888   1.095411   2.015120   2.511245   2.517787
     8  H    2.170624   1.102542   2.092096   3.080367   2.508533
     9  H    2.633544   1.951191   0.969491   2.986556   3.634761
                    6          7          8          9
     6  H    0.000000
     7  H    3.083685   0.000000
     8  H    2.530298   1.769605   0.000000
     9  H    2.534854   2.820598   2.345163   0.000000
 Stoichiometry    C2H6O
 Framework group  C1[X(C2H6O)]
 Deg. of freedom    21
 Full point group                 C1      NOp   1
 RotChk:  IX=0 Diff= 1.20D-02
 Largest Abelian subgroup         C1      NOp   1
 Largest concise Abelian subgroup C1      NOp   1
                         Standard orientation:                         
 ---------------------------------------------------------------------
 Center     Atomic      Atomic             Coordinates (Angstroms)
 Number     Number       Type             X           Y           Z
 ---------------------------------------------------------------------
      1          6           0       -1.217631   -0.240477   -0.021876
      2          6           0        0.084659    0.558116    0.047286
      3          8           0        1.241585   -0.260669   -0.109592
      4          1           0       -1.276385   -0.790202   -0.967643
      5          1           0       -2.088620    0.422196    0.053883
      6          1           0       -1.277385   -0.966032    0.800726
      7          1           0        0.128366    1.282309   -0.773420
      8          1           0        0.129002    1.128923    0.989524
      9          1           0        1.250180   -0.897673    0.621206
 ---------------------------------------------------------------------
 Rotational constants (GHZ):          34.1844082           9.1246707           8.0634909
 Leave Link  202 at Sun May 28 08:50:10 2023, MaxMem=   134217728 cpu:               0.0 elap:               0.2
 (Enter C:\G16W\l301.exe)
 Standard basis: 6-31G(d) (6D, 7F)
 Ernie: Thresh=  0.10000D-02 Tol=  0.10000D-05 Strict=F.
 There are    57 symmetry adapted cartesian basis functions of A   symmetry.
 There are    57 symmetry adapted basis functions of A   symmetry.
    57 basis functions,   108 primitive gaussians,    57 cartesian basis functions
    13 alpha electrons       13 beta electrons
       nuclear repulsion energy        81.3394634349 Hartrees.
 IExCor=  402 DFT=T Ex+Corr=B3LYP ExCW=0 ScaHFX=  0.200000
 ScaDFX=  0.800000  0.720000  1.000000  0.810000 ScalE2=  1.000000  1.000000
 IRadAn=      5 IRanWt=     -1 IRanGd=            0 ICorTp=0 IEmpDi=  4
 NAtoms=    9 NActive=    9 NUniq=    9 SFac= 1.00D+00 NAtFMM=   60 NAOKFM=F Big=F
 Integral buffers will be    131072 words long.
 Raffenetti 2 integral format.
 Two-electron integral symmetry is turned on.
 Leave Link  301 at Sun May 28 08:50:10 2023, MaxMem=   134217728 cpu:               0.0 elap:               0.1
 (Enter C:\G16W\l302.exe)
 NPDir=0 NMtPBC=     1 NCelOv=     1 NCel=       1 NClECP=     1 NCelD=      1
         NCelK=      1 NCelE2=     1 NClLst=     1 CellRange=     0.0.
 One-electron integrals computed using PRISM.
 One-electron integral symmetry used in STVInt
 NBasis=    57 RedAO= T EigKep=  6.22D-03  NBF=    57
 NBsUse=    57 1.00D-06 EigRej= -1.00D+00 NBFU=    57
 Precomputing XC quadrature grid using
 IXCGrd= 4 IRadAn=           5 IRanWt=          -1 IRanGd=           0 AccXCQ= 0.00D+00.
 Generated NRdTot=       0 NPtTot=           0 NUsed=           0 NTot=          32
 NSgBfM=    57    57    57    57    57 MxSgAt=     9 MxSgA2=     9.
 Leave Link  302 at Sun May 28 08:50:11 2023, MaxMem=   134217728 cpu:               1.0 elap:               1.3
 (Enter C:\G16W\l303.exe)
 DipDrv:  MaxL=1.
 Leave Link  303 at Sun May 28 08:50:11 2023, MaxMem=   134217728 cpu:               0.0 elap:               0.1
 (Enter C:\G16W\l401.exe)
 Initial guess from the checkpoint file:  "C:\g16w\Scratch\Gau-15724.chk"
 B after Tr=     0.000000    0.000000    0.000000
         Rot=    0.999996   -0.002382   -0.000464   -0.001581 Ang=  -0.33 deg.
 Guess basis will be translated and rotated to current coordinates.
 JPrj=2 DoOrth=T DoCkMO=T.
 Generating alternative initial guess.
 ExpMin= 1.61D-01 ExpMax= 5.48D+03 ExpMxC= 8.25D+02 IAcc=2 IRadAn=         4 AccDes= 0.00D+00
 Harris functional with IExCor=  402 and IRadAn=       4 diagonalized for initial guess.
 HarFok:  IExCor=  402 AccDes= 0.00D+00 IRadAn=         4 IDoV= 1 UseB2=F ITyADJ=14
 ICtDFT=  3500011 ScaDFX=  1.000000  1.000000  1.000000  1.000000
 FoFCou: FMM=F IPFlag=           0 FMFlag=      100000 FMFlg1=           0
         NFxFlg=           0 DoJE=T BraDBF=F KetDBF=T FulRan=T
         wScrn=  0.000000 ICntrl=       500 IOpCl=  0 I1Cent=   200000004 NGrid=           0
         NMat0=    1 NMatS0=      1 NMatT0=    0 NMatD0=    1 NMtDS0=    0 NMtDT0=    0
 Petite list used in FoFCou.
 Harris En= -155.075867614448    
 Leave Link  401 at Sun May 28 08:50:12 2023, MaxMem=   134217728 cpu:               0.0 elap:               0.5
 (Enter C:\G16W\l502.exe)
 Keep R1 ints in memory in canonical form, NReq=4886539.
 FoFCou: FMM=F IPFlag=           0 FMFlag=           0 FMFlg1=           0
         NFxFlg=           0 DoJE=F BraDBF=F KetDBF=F FulRan=T
         wScrn=  0.000000 ICntrl=       600 IOpCl=  0 I1Cent=           0 NGrid=           0
         NMat0=    1 NMatS0=   1653 NMatT0=    0 NMatD0=    1 NMtDS0=    0 NMtDT0=    0
 Symmetry not used in FoFCou.
 Two-electron integral symmetry not used.
 Closed shell SCF:
 Using DIIS extrapolation, IDIIS=  1040.
 NGot=   134217728 LenX=   132842983 LenY=   132839293
 Requested convergence on RMS density matrix=1.00D-08 within 128 cycles.
 Requested convergence on MAX density matrix=1.00D-06.
 Requested convergence on             energy=1.00D-06.
 No special actions if energy rises.
 Integral accuracy reduced to 1.0D-05 until final iterations.

 Cycle   1  Pass 0  IDiag  1:
 E= -155.034214497614    
 DIIS: error= 5.97D-04 at cycle   1 NSaved=   1.
 NSaved= 1 IEnMin= 1 EnMin= -155.034214497614     IErMin= 1 ErrMin= 5.97D-04
 ErrMax= 5.97D-04  0.00D+00 EMaxC= 1.00D-01 BMatC= 3.96D-05 BMatP= 3.96D-05
 IDIUse=3 WtCom= 9.94D-01 WtEn= 5.97D-03
 Coeff-Com:  0.100D+01
 Coeff-En:   0.100D+01
 Coeff:      0.100D+01
 Gap=     1.608 Goal=   None    Shift=    0.000
 RMSDP=2.11D-04 MaxDP=2.13D-03              OVMax= 2.57D-03

 Cycle   2  Pass 0  IDiag  1:
 E= -155.034272253291     Delta-E=       -0.000057755677 Rises=F Damp=F
 DIIS: error= 1.49D-04 at cycle   2 NSaved=   2.
 NSaved= 2 IEnMin= 2 EnMin= -155.034272253291     IErMin= 2 ErrMin= 1.49D-04
 ErrMax= 1.49D-04  0.00D+00 EMaxC= 1.00D-01 BMatC= 2.26D-06 BMatP= 3.96D-05
 IDIUse=3 WtCom= 9.99D-01 WtEn= 1.49D-03
 Coeff-Com:  0.726D-01 0.927D+00
 Coeff-En:   0.000D+00 0.100D+01
 Coeff:      0.725D-01 0.928D+00
 Gap=     0.339 Goal=   None    Shift=    0.000
 RMSDP=4.20D-05 MaxDP=4.97D-04 DE=-5.78D-05 OVMax= 5.72D-04

 Cycle   3  Pass 0  IDiag  1:
 E= -155.034272848280     Delta-E=       -0.000000594989 Rises=F Damp=F
 DIIS: error= 1.61D-04 at cycle   3 NSaved=   3.
 NSaved= 3 IEnMin= 3 EnMin= -155.034272848280     IErMin= 2 ErrMin= 1.49D-04
 ErrMax= 1.61D-04  0.00D+00 EMaxC= 1.00D-01 BMatC= 1.83D-06 BMatP= 2.26D-06
 IDIUse=3 WtCom= 9.98D-01 WtEn= 1.61D-03
 Coeff-Com: -0.810D-02 0.473D+00 0.536D+00
 Coeff-En:   0.000D+00 0.413D+00 0.587D+00
 Coeff:     -0.808D-02 0.472D+00 0.536D+00
 Gap=     0.339 Goal=   None    Shift=    0.000
 RMSDP=2.16D-05 MaxDP=2.95D-04 DE=-5.95D-07 OVMax= 3.24D-04

 Cycle   4  Pass 0  IDiag  1:
 E= -155.034274409815     Delta-E=       -0.000001561535 Rises=F Damp=F
 DIIS: error= 2.99D-05 at cycle   4 NSaved=   4.
 NSaved= 4 IEnMin= 4 EnMin= -155.034274409815     IErMin= 4 ErrMin= 2.99D-05
 ErrMax= 2.99D-05  0.00D+00 EMaxC= 1.00D-01 BMatC= 9.70D-08 BMatP= 1.83D-06
 IDIUse=1 WtCom= 1.00D+00 WtEn= 0.00D+00
 Coeff-Com: -0.107D-01 0.152D+00 0.252D+00 0.606D+00
 Coeff:     -0.107D-01 0.152D+00 0.252D+00 0.606D+00
 Gap=     0.339 Goal=   None    Shift=    0.000
 RMSDP=4.95D-06 MaxDP=6.60D-05 DE=-1.56D-06 OVMax= 6.65D-05

 Initial convergence to 1.0D-05 achieved.  Increase integral accuracy.
 Cycle   5  Pass 1  IDiag  1:
 E= -155.034277324149     Delta-E=       -0.000002914334 Rises=F Damp=F
 DIIS: error= 1.16D-05 at cycle   1 NSaved=   1.
 NSaved= 1 IEnMin= 1 EnMin= -155.034277324149     IErMin= 1 ErrMin= 1.16D-05
 ErrMax= 1.16D-05  0.00D+00 EMaxC= 1.00D-01 BMatC= 8.07D-09 BMatP= 8.07D-09
 IDIUse=1 WtCom= 1.00D+00 WtEn= 0.00D+00
 Coeff-Com:  0.100D+01
 Coeff:      0.100D+01
 Gap=     0.339 Goal=   None    Shift=    0.000
 RMSDP=4.95D-06 MaxDP=6.60D-05 DE=-2.91D-06 OVMax= 4.50D-05

 Cycle   6  Pass 1  IDiag  1:
 E= -155.034277318497     Delta-E=        0.000000005653 Rises=F Damp=F
 DIIS: error= 1.67D-05 at cycle   2 NSaved=   2.
 NSaved= 2 IEnMin= 1 EnMin= -155.034277324149     IErMin= 1 ErrMin= 1.16D-05
 ErrMax= 1.67D-05  0.00D+00 EMaxC= 1.00D-01 BMatC= 1.63D-08 BMatP= 8.07D-09
 IDIUse=1 WtCom= 1.00D+00 WtEn= 0.00D+00
 Coeff-Com:  0.588D+00 0.412D+00
 Coeff:      0.588D+00 0.412D+00
 Gap=     0.339 Goal=   None    Shift=    0.000
 RMSDP=1.84D-06 MaxDP=2.74D-05 DE= 5.65D-09 OVMax= 2.64D-05

 Cycle   7  Pass 1  IDiag  1:
 E= -155.034277330563     Delta-E=       -0.000000012066 Rises=F Damp=F
 DIIS: error= 1.07D-06 at cycle   3 NSaved=   3.
 NSaved= 3 IEnMin= 3 EnMin= -155.034277330563     IErMin= 3 ErrMin= 1.07D-06
 ErrMax= 1.07D-06  0.00D+00 EMaxC= 1.00D-01 BMatC= 8.44D-11 BMatP= 8.07D-09
 IDIUse=1 WtCom= 1.00D+00 WtEn= 0.00D+00
 Coeff-Com:  0.257D+00 0.186D+00 0.557D+00
 Coeff:      0.257D+00 0.186D+00 0.557D+00
 Gap=     0.339 Goal=   None    Shift=    0.000
 RMSDP=1.62D-07 MaxDP=2.36D-06 DE=-1.21D-08 OVMax= 2.57D-06

 Cycle   8  Pass 1  IDiag  1:
 E= -155.034277330632     Delta-E=       -0.000000000070 Rises=F Damp=F
 DIIS: error= 3.16D-07 at cycle   4 NSaved=   4.
 NSaved= 4 IEnMin= 4 EnMin= -155.034277330632     IErMin= 4 ErrMin= 3.16D-07
 ErrMax= 3.16D-07  0.00D+00 EMaxC= 1.00D-01 BMatC= 6.69D-12 BMatP= 8.44D-11
 IDIUse=1 WtCom= 1.00D+00 WtEn= 0.00D+00
 Coeff-Com: -0.527D-02-0.370D-02 0.212D+00 0.797D+00
 Coeff:     -0.527D-02-0.370D-02 0.212D+00 0.797D+00
 Gap=     0.339 Goal=   None    Shift=    0.000
 RMSDP=4.18D-08 MaxDP=5.10D-07 DE=-6.96D-11 OVMax= 5.92D-07

 Cycle   9  Pass 1  IDiag  1:
 E= -155.034277330639     Delta-E=       -0.000000000007 Rises=F Damp=F
 DIIS: error= 2.16D-08 at cycle   5 NSaved=   5.
 NSaved= 5 IEnMin= 5 EnMin= -155.034277330639     IErMin= 5 ErrMin= 2.16D-08
 ErrMax= 2.16D-08  0.00D+00 EMaxC= 1.00D-01 BMatC= 4.62D-14 BMatP= 6.69D-12
 IDIUse=1 WtCom= 1.00D+00 WtEn= 0.00D+00
 Coeff-Com: -0.582D-02-0.434D-02 0.360D-01 0.177D+00 0.797D+00
 Coeff:     -0.582D-02-0.434D-02 0.360D-01 0.177D+00 0.797D+00
 Gap=     0.339 Goal=   None    Shift=    0.000
 RMSDP=5.52D-09 MaxDP=4.25D-08 DE=-7.05D-12 OVMax= 6.93D-08

 SCF Done:  E(RB3LYP) =  -155.034277331     A.U. after    9 cycles
            NFock=  9  Conv=0.55D-08     -V/T= 2.0093
 KE= 1.536080942121D+02 PE=-5.245155213728D+02 EE= 1.345336863952D+02
 Leave Link  502 at Sun May 28 08:50:19 2023, MaxMem=   134217728 cpu:               7.0 elap:               6.6
 (Enter C:\G16W\l701.exe)
 ... and contract with generalized density number  0.
 Compute integral first derivatives.
 Leave Link  701 at Sun May 28 08:50:19 2023, MaxMem=   134217728 cpu:               0.0 elap:               0.2
 (Enter C:\G16W\l702.exe)
 L702 exits ... SP integral derivatives will be done elsewhere.
 Leave Link  702 at Sun May 28 08:50:19 2023, MaxMem=   134217728 cpu:               0.0 elap:               0.1
 (Enter C:\G16W\l703.exe)
 Integral derivatives from FoFJK, PRISM(SPDF).
 Compute integral first derivatives, UseDBF=F ICtDFT=           0.
 Calling FoFJK, ICntrl=      2127 FMM=F ISym2X=0 I1Cent= 0 IOpClX= 0 NMat=1 NMatS=1 NMatT=0.
 FoFJK:  IHMeth= 1 ICntrl=    2127 DoSepK=F KAlg= 0 I1Cent=           0 FoldK=F
 IRaf=         0 NMat=       1 IRICut=       1 DoRegI=T DoRafI=F ISym2E= 0 IDoP0=0 IntGTp=1.
 FoFCou: FMM=F IPFlag=           0 FMFlag=      100000 FMFlg1=         800
         NFxFlg=           0 DoJE=F BraDBF=F KetDBF=F FulRan=T
         wScrn=  0.000000 ICntrl=      2127 IOpCl=  0 I1Cent=           0 NGrid=           0
         NMat0=    1 NMatS0=      1 NMatT0=    0 NMatD0=    1 NMtDS0=    0 NMtDT0=    0
 Symmetry not used in FoFCou.
 Leave Link  703 at Sun May 28 08:50:21 2023, MaxMem=   134217728 cpu:               2.0 elap:               2.2
 (Enter C:\G16W\l716.exe)
 Dipole        =-4.50912472D-01-8.91755393D-02 4.71472269D-01
 ***** Axes restored to original set *****
 -------------------------------------------------------------------
 Center     Atomic                   Forces (Hartrees/Bohr)
 Number     Number              X              Y              Z
 -------------------------------------------------------------------
      1        6          -0.000694273   -0.001367926   -0.000247971
      2        6           0.001516080    0.000596072    0.001202724
      3        8          -0.001444799    0.000640258   -0.000654485
      4        1           0.000290523    0.000135756   -0.000330423
      5        1           0.000186468   -0.000064863    0.000246576
      6        1          -0.000357830    0.000156859    0.000027961
      7        1           0.000459461   -0.000289843    0.000012108
      8        1          -0.000282195   -0.000101951    0.000051256
      9        1           0.000326565    0.000295638   -0.000307747
 -------------------------------------------------------------------
 Cartesian Forces:  Max     0.001516080 RMS     0.000626060
 Leave Link  716 at Sun May 28 08:50:22 2023, MaxMem=   134217728 cpu:               0.0 elap:               0.1
 (Enter C:\G16W\l103.exe)

 GradGradGradGradGradGradGradGradGradGradGradGradGradGradGradGradGradGrad
 Berny optimization.
 Using GEDIIS/GDIIS optimizer.
 FormGI is forming the generalized inverse of G from B-inverse, IUseBI=4.
 Internal  Forces:  Max     0.001609215 RMS     0.000438922
 Search for a local minimum.
 Step number   3 out of a maximum of   43
 All quantities printed in internal units (Hartrees-Bohrs-Radians)
 RMS Force = .43892D-03 SwitMx=.10000D-02 MixMth= 2
 Mixed Optimization -- En-DIIS/RFO-DIIS
 Update second derivatives using D2CorX and points    1    2    3
 DE= -1.73D-04 DEPred=-1.81D-04 R= 9.55D-01
 TightC=F SS=  1.41D+00  RLast= 5.03D-02 DXNew= 8.4853D-01 1.5079D-01
 Trust test= 9.55D-01 RLast= 5.03D-02 DXMaxT set to 5.05D-01
 ITU=  1  1  0
 Use linear search instead of GDIIS.
     Eigenvalues ---    0.00501   0.01427   0.05304   0.05608   0.05711
     Eigenvalues ---    0.05774   0.11914   0.14066   0.15105   0.16000
     Eigenvalues ---    0.16012   0.18029   0.24503   0.27658   0.36222
     Eigenvalues ---    0.37230   0.37230   0.37255   0.37392   0.44165
     Eigenvalues ---    0.47506
 RFO step:  Lambda=-2.17853681D-05 EMin= 5.00656631D-03
 Quartic linear search produced a step of -0.04501.
 Iteration  1 RMS(Cart)=  0.00218642 RMS(Int)=  0.00000365
 Iteration  2 RMS(Cart)=  0.00000388 RMS(Int)=  0.00000072
 Iteration  3 RMS(Cart)=  0.00000000 RMS(Int)=  0.00000072
 ITry= 1 IFail=0 DXMaxC= 4.54D-03 DCOld= 1.00D+10 DXMaxT= 5.05D-01 DXLimC= 3.00D+00 Rises=F
 Variable       Old X    -DE/DX   Delta X   Delta X   Delta X     New X
                                 (Linear)    (Quad)   (Total)
    R1        2.88979  -0.00130   0.00066  -0.00574  -0.00508   2.88471
    R2        2.07020  -0.00037  -0.00015  -0.00062  -0.00077   2.06943
    R3        2.07310  -0.00026  -0.00005  -0.00061  -0.00066   2.07244
    R4        2.07584  -0.00035  -0.00023  -0.00038  -0.00061   2.07523
    R5        2.69476  -0.00161  -0.00002  -0.00358  -0.00360   2.69116
    R6        2.07003  -0.00045  -0.00023  -0.00063  -0.00086   2.06917
    R7        2.08350  -0.00011  -0.00023   0.00020  -0.00002   2.08348
    R8        1.83207   0.00032   0.00006   0.00056   0.00062   1.83270
    A1        1.92492   0.00032  -0.00030   0.00283   0.00253   1.92745
    A2        1.93644   0.00015   0.00039  -0.00012   0.00027   1.93671
    A3        1.93627   0.00014  -0.00045   0.00176   0.00131   1.93757
    A4        1.89669  -0.00021  -0.00001  -0.00087  -0.00088   1.89581
    A5        1.88824  -0.00024   0.00019  -0.00188  -0.00169   1.88654
    A6        1.87977  -0.00019   0.00020  -0.00193  -0.00173   1.87804
    A7        1.96718   0.00036   0.00042   0.00075   0.00116   1.96834
    A8        1.92340   0.00014  -0.00006   0.00063   0.00057   1.92398
    A9        1.92119   0.00011   0.00012   0.00177   0.00189   1.92308
   A10        1.83880  -0.00040  -0.00094  -0.00134  -0.00228   1.83651
   A11        1.93762  -0.00011   0.00002   0.00068   0.00070   1.93831
   A12        1.87173  -0.00014   0.00040  -0.00281  -0.00241   1.86932
   A13        1.87709  -0.00078  -0.00096  -0.00226  -0.00321   1.87388
    D1       -0.99175   0.00016   0.00042   0.00443   0.00485  -0.98690
    D2        1.05693  -0.00002  -0.00054   0.00364   0.00310   1.06003
    D3        3.11788  -0.00004  -0.00001   0.00166   0.00164   3.11953
    D4       -3.09430   0.00011   0.00038   0.00373   0.00411  -3.09019
    D5       -1.04562  -0.00007  -0.00058   0.00293   0.00236  -1.04327
    D6        1.01533  -0.00009  -0.00005   0.00095   0.00090   1.01623
    D7        1.10010   0.00016   0.00017   0.00507   0.00524   1.10534
    D8       -3.13441  -0.00002  -0.00079   0.00428   0.00349  -3.13092
    D9       -1.07345  -0.00004  -0.00026   0.00229   0.00203  -1.07142
   D10       -1.07567  -0.00009  -0.00031  -0.00216  -0.00247  -1.07814
   D11        3.10946  -0.00020   0.00014  -0.00249  -0.00235   3.10711
   D12        1.08885   0.00024   0.00019   0.00124   0.00142   1.09027
         Item               Value     Threshold  Converged?
 Maximum Force            0.001609     0.000450     NO 
 RMS     Force            0.000439     0.000300     NO 
 Maximum Displacement     0.004536     0.001800     NO 
 RMS     Displacement     0.002188     0.001200     NO 
 Predicted change in Energy=-1.128045D-05
 Lowest energy point so far.  Saving SCF results.
 GradGradGradGradGradGradGradGradGradGradGradGradGradGradGradGradGradGrad

 Leave Link  103 at Sun May 28 08:50:22 2023, MaxMem=   134217728 cpu:               0.0 elap:               0.1
 (Enter C:\G16W\l202.exe)
                          Input orientation:                          
 ---------------------------------------------------------------------
 Center     Atomic      Atomic             Coordinates (Angstroms)
 Number     Number       Type             X           Y           Z
 ---------------------------------------------------------------------
      1          6           0        0.975309   -0.010777    0.089233
      2          6           0        0.500098   -1.401329   -0.324062
      3          8           0        0.916989   -2.418235    0.581573
      4          1           0        0.630459    0.226006    1.101282
      5          1           0        0.594970    0.754319   -0.598298
      6          1           0        2.071766    0.049665    0.079711
      7          1           0       -0.594013   -1.444187   -0.320685
      8          1           0        0.830254   -1.626359   -1.351648
      9          1           0        1.886748   -2.428672    0.578614
 ---------------------------------------------------------------------
                    Distance matrix (angstroms):
                    1          2          3          4          5
     1  C    0.000000
     2  C    1.526523   0.000000
     3  O    2.457978   1.424103   0.000000
     4  H    1.095094   2.167214   2.710020   0.000000
     5  H    1.096690   2.175092   3.400131   1.780154   0.000000
     6  H    1.098164   2.176822   2.770542   1.775407   1.771203
     7  H    2.164595   1.094956   2.011458   2.512144   2.514792
     8  H    2.169628   1.102531   2.090917   3.080267   2.508092
     9  H    2.629912   1.947577   0.969821   2.983079   3.631150
[...]
     31  0.237869D-01 -0.212692D-01 -0.627675D-02  0.978855D-02 -0.840967D-03
     32 -0.276215D-01 -0.345027D-02  0.207837D-01  0.125024D-01  0.152396D-01
     33  0.477056D-02  0.251708D-01 -0.135328D-01 -0.211689D-01 -0.150899D-01
               21            22            23            24            25 
     21  0.189028D+00
     22 -0.465564D-02  0.174943D-01
     23  0.338915D-02  0.330079D-02  0.170487D-01
     24  0.655432D-03  0.272698D-02  0.315933D-02  0.155188D-01
     25 -0.479493D-02  0.633330D-02 -0.780575D-02 -0.762326D-02  0.164532D-01
     26  0.324985D-02 -0.786024D-02  0.594215D-02 -0.719091D-02  0.231413D-02
     27  0.516136D-03 -0.843406D-02 -0.794721D-02  0.516852D-02  0.249661D-02
     28 -0.434634D-02  0.681232D-02 -0.797273D-02 -0.716740D-02  0.624557D-02
     29  0.369845D-02 -0.738123D-02  0.577516D-02 -0.673505D-02 -0.789348D-02
     30  0.964727D-03 -0.795504D-02 -0.811419D-02  0.562438D-02 -0.771100D-02
     31  0.503126D-03 -0.461599D-02  0.104091D-02  0.152544D-02 -0.272558D-02
     32  0.295316D-02  0.182672D-02 -0.237037D-03 -0.499809D-03  0.108063D-02
     33 -0.195774D-02  0.279189D-02 -0.645515D-03 -0.868610D-03  0.190726D-02
               26            27            28            29            30 
     26  0.161165D-01
     27  0.298346D-02  0.160992D-01
     28 -0.853948D-02 -0.773415D-02  0.172429D-01
     29  0.526291D-02 -0.724730D-02  0.245781D-02  0.156142D-01
     30 -0.787015D-02  0.586843D-02  0.326315D-02  0.310400D-02  0.168426D-01
     31  0.293133D-02  0.341586D-02 -0.466780D-02  0.989102D-03  0.147364D-02
     32 -0.983134D-03 -0.124591D-02  0.166624D-02 -0.397524D-03 -0.660297D-03
     33 -0.153015D-02 -0.175324D-02  0.257980D-02 -0.857602D-03 -0.108070D-02
               31            32            33 
     31  0.167281D-01
     32 -0.624946D-02  0.227366D-01
     33 -0.651771D-02 -0.128013D-01  0.227323D-01
 Leave Link  716 at Sun May 28 08:51:37 2023, MaxMem=   134217728 cpu:               0.0 elap:               0.2
 (Enter C:\G16W\l103.exe)

 GradGradGradGradGradGradGradGradGradGradGradGradGradGradGradGradGradGrad
 Berny optimization.
 Red2BG is reusing G-inverse.
 Internal  Forces:  Max     0.000044345 RMS     0.000016197
 Search for a local minimum.
 Step number   1 out of a maximum of    2
 All quantities printed in internal units (Hartrees-Bohrs-Radians)
 Second derivative matrix not updated -- analytic derivatives used.
 ITU=  0
     Eigenvalues ---    0.00297   0.00366   0.04572   0.04585   0.05111
     Eigenvalues ---    0.06052   0.10361   0.12185   0.12741   0.13268
     Eigenvalues ---    0.16604   0.17728   0.24299   0.29175   0.31536
     Eigenvalues ---    0.33329   0.33643   0.33992   0.34628   0.38436
     Eigenvalues ---    0.50278
 Angle between quadratic step and forces=  69.79 degrees.
 Linear search not attempted -- first point.
 Iteration  1 RMS(Cart)=  0.00016850 RMS(Int)=  0.00000005
 Iteration  2 RMS(Cart)=  0.00000005 RMS(Int)=  0.00000000
 ITry= 1 IFail=0 DXMaxC= 4.64D-04 DCOld= 1.00D+10 DXMaxT= 3.00D-01 DXLimC= 3.00D+00 Rises=F
 Variable       Old X    -DE/DX   Delta X   Delta X   Delta X     New X
                                 (Linear)    (Quad)   (Total)
    R1        2.88419   0.00004   0.00000   0.00016   0.00016   2.88435
    R2        2.06921   0.00003   0.00000   0.00008   0.00008   2.06929
    R3        2.07245   0.00000   0.00000   0.00001   0.00001   2.07246
    R4        2.07511   0.00001   0.00000   0.00001   0.00001   2.07512
    R5        2.69087  -0.00004   0.00000  -0.00013  -0.00013   2.69074
    R6        2.06915   0.00002   0.00000   0.00005   0.00005   2.06920
    R7        2.08351   0.00002   0.00000   0.00005   0.00005   2.08356
    R8        1.83292  -0.00002   0.00000  -0.00004  -0.00004   1.83288
    A1        1.92761   0.00002   0.00000   0.00009   0.00009   1.92770
    A2        1.93784  -0.00003   0.00000  -0.00019  -0.00019   1.93765
    A3        1.93801   0.00000   0.00000   0.00002   0.00002   1.93803
    A4        1.89519   0.00000   0.00000  -0.00007  -0.00007   1.89512
    A5        1.88602  -0.00001   0.00000   0.00004   0.00004   1.88606
    A6        1.87738   0.00001   0.00000   0.00010   0.00010   1.87748
    A7        1.96979  -0.00003   0.00000  -0.00012  -0.00012   1.96967
    A8        1.92410   0.00001   0.00000  -0.00004  -0.00004   1.92406
    A9        1.92270   0.00000   0.00000  -0.00002  -0.00002   1.92267
   A10        1.83661   0.00000   0.00000  -0.00004  -0.00004   1.83658
   A11        1.93805   0.00002   0.00000   0.00015   0.00015   1.93820
   A12        1.86819   0.00000   0.00000   0.00007   0.00007   1.86826
   A13        1.87431  -0.00001   0.00000   0.00001   0.00001   1.87433
    D1       -0.98648   0.00000   0.00000   0.00017   0.00017  -0.98632
    D2        1.06156  -0.00001   0.00000   0.00002   0.00002   1.06158
    D3        3.11951   0.00000   0.00000   0.00008   0.00008   3.11959
    D4       -3.08985   0.00001   0.00000   0.00032   0.00032  -3.08953
    D5       -1.04181   0.00000   0.00000   0.00018   0.00018  -1.04163
    D6        1.01614   0.00000   0.00000   0.00023   0.00023   1.01637
    D7        1.10548   0.00001   0.00000   0.00030   0.00030   1.10578
    D8       -3.12967   0.00000   0.00000   0.00016   0.00016  -3.12951
    D9       -1.07171   0.00001   0.00000   0.00021   0.00021  -1.07150
   D10       -1.07838   0.00000   0.00000  -0.00066  -0.00066  -1.07905
   D11        3.10584   0.00000   0.00000  -0.00053  -0.00053   3.10531
   D12        1.09040  -0.00001   0.00000  -0.00067  -0.00067   1.08974
         Item               Value     Threshold  Converged?
 Maximum Force            0.000044     0.000450     YES
 RMS     Force            0.000016     0.000300     YES
 Maximum Displacement     0.000464     0.001800     YES
 RMS     Displacement     0.000169     0.001200     YES
 Predicted change in Energy=-2.098701D-08
 Optimization completed.
    -- Stationary point found.
                           ----------------------------
                           !   Optimized Parameters   !
                           ! (Angstroms and Degrees)  !
 --------------------------                            --------------------------
 ! Name  Definition              Value          Derivative Info.                !
 --------------------------------------------------------------------------------
 ! R1    R(1,2)                  1.5262         -DE/DX =    0.0                 !
 ! R2    R(1,4)                  1.095          -DE/DX =    0.0                 !
 ! R3    R(1,5)                  1.0967         -DE/DX =    0.0                 !
 ! R4    R(1,6)                  1.0981         -DE/DX =    0.0                 !
 ! R5    R(2,3)                  1.4239         -DE/DX =    0.0                 !
 ! R6    R(2,7)                  1.0949         -DE/DX =    0.0                 !
 ! R7    R(2,8)                  1.1025         -DE/DX =    0.0                 !
 ! R8    R(3,9)                  0.9699         -DE/DX =    0.0                 !
 ! A1    A(2,1,4)              110.4438         -DE/DX =    0.0                 !
 ! A2    A(2,1,5)              111.0299         -DE/DX =    0.0                 !
 ! A3    A(2,1,6)              111.0396         -DE/DX =    0.0                 !
 ! A4    A(4,1,5)              108.5866         -DE/DX =    0.0                 !
 ! A5    A(4,1,6)              108.0609         -DE/DX =    0.0                 !
 ! A6    A(5,1,6)              107.5662         -DE/DX =    0.0                 !
 ! A7    A(1,2,3)              112.8606         -DE/DX =    0.0                 !
 ! A8    A(1,2,7)              110.2427         -DE/DX =    0.0                 !
 ! A9    A(1,2,8)              110.1623         -DE/DX =    0.0                 !
 ! A10   A(3,2,7)              105.2302         -DE/DX =    0.0                 !
 ! A11   A(3,2,8)              111.0423         -DE/DX =    0.0                 !
 ! A12   A(7,2,8)              107.0394         -DE/DX =    0.0                 !
 ! A13   A(2,3,9)              107.3902         -DE/DX =    0.0                 !
 ! D1    D(4,1,2,3)            -56.5214         -DE/DX =    0.0                 !
 ! D2    D(4,1,2,7)             60.8229         -DE/DX =    0.0                 !
 ! D3    D(4,1,2,8)            178.7349         -DE/DX =    0.0                 !
 ! D4    D(5,1,2,3)           -177.0355         -DE/DX =    0.0                 !
 ! D5    D(5,1,2,7)            -59.6913         -DE/DX =    0.0                 !
 ! D6    D(5,1,2,8)             58.2207         -DE/DX =    0.0                 !
 ! D7    D(6,1,2,3)             63.3391         -DE/DX =    0.0                 !
 ! D8    D(6,1,2,7)           -179.3166         -DE/DX =    0.0                 !
 ! D9    D(6,1,2,8)            -61.4046         -DE/DX =    0.0                 !
 ! D10   D(1,2,3,9)            -61.7869         -DE/DX =    0.0                 !
 ! D11   D(7,2,3,9)            177.9518         -DE/DX =    0.0                 !
 ! D12   D(8,2,3,9)             62.4756         -DE/DX =    0.0                 !
 --------------------------------------------------------------------------------
 GradGradGradGradGradGradGradGradGradGradGradGradGradGradGradGradGradGrad

 Leave Link  103 at Sun May 28 08:51:38 2023, MaxMem=   134217728 cpu:               1.0 elap:               0.1
 (Enter C:\G16W\l9999.exe)

 ----------------------------------------------------------------------

 Electric dipole moment (input orientation):
 (Debye = 10**-18 statcoulomb cm , SI units = C m)
                  (au)            (Debye)         (10**-30 SI)
   Tot        0.658532D+00      0.167382D+01      0.558327D+01
   x          0.415703D+00      0.105661D+01      0.352448D+01
   y          0.400954D+00      0.101912D+01      0.339943D+01
   z         -0.316372D+00     -0.804138D+00     -0.268232D+01

 Dipole polarizability, Alpha (input orientation).
 (esu units = cm**3 , SI units = C**2 m**2 J**-1)
 Alpha(0;0):
               (au)            (10**-24 esu)      (10**-40 SI)
   iso        0.263219D+02      0.390050D+01      0.433989D+01
   aniso      0.339462D+01      0.503031D+00      0.559697D+00
   xx         0.268944D+02      0.398534D+01      0.443429D+01
   yx        -0.754850D+00     -0.111857D+00     -0.124458D+00
   yy         0.269877D+02      0.399917D+01      0.444967D+01
   zx         0.966078D+00      0.143158D+00      0.159285D+00
   zy        -0.108885D+01     -0.161351D+00     -0.179527D+00
   zz         0.250834D+02      0.371698D+01      0.413570D+01

 ----------------------------------------------------------------------

 Dipole orientation:
     6          1.45806368          0.39108881          1.07020228
     6          0.99280009          2.60265041         -0.72174411
     8          3.14647550          3.20716934         -2.21741140
     1          2.07333751         -1.27820496          0.01355210
     1         -0.26243240         -0.08936658          2.12097342
     1          2.93058330          0.85325097          2.45734610
     1         -0.49428528          2.12408504         -2.07855969
     1          0.33288828          4.26558061          0.34605310
     1          4.48817038          3.70221796         -1.07094368

 Electric dipole moment (dipole orientation):
 (Debye = 10**-18 statcoulomb cm , SI units = C m)
                  (au)            (Debye)         (10**-30 SI)
   Tot        0.658532D+00      0.167382D+01      0.558327D+01
   x          0.000000D+00      0.000000D+00      0.000000D+00
   y          0.000000D+00      0.000000D+00      0.000000D+00
   z          0.658532D+00      0.167382D+01      0.558327D+01

 Dipole polarizability, Alpha (dipole orientation).
 (esu units = cm**3 , SI units = C**2 m**2 J**-1)
 Alpha(0;0):
               (au)            (10**-24 esu)      (10**-40 SI)
   iso        0.263219D+02      0.390050D+01      0.433989D+01
   aniso      0.339462D+01      0.503031D+00      0.559697D+00
   xx         0.277138D+02      0.410676D+01      0.456939D+01
   yx         0.125017D+01      0.185255D+00      0.206125D+00
   yy         0.252700D+02      0.374462D+01      0.416646D+01
   zx        -0.186237D+00     -0.275975D-01     -0.307063D-01
   zy        -0.814713D+00     -0.120728D+00     -0.134328D+00
   zz         0.259818D+02      0.385011D+01      0.428382D+01

 ----------------------------------------------------------------------
 1|1|UNPC-DESKTOP-TVFEK6C|Freq|RB3LYP|6-31G(d)|C2H6O1|KEUNHONGJEONG|28-
 May-2023|0||#P Geom=AllCheck Guess=TCheck SCRF=Check GenChk RB3LYP/6-3
 1G(d) Freq||Title Card Required||0,1|C,0.9751166403,-0.0106340659,0.08
 89796007|C,0.5004235682,-1.4013219432,-0.3234328887|O,0.9167620111,-2.
 4188942748,0.5814616838|H,0.6307598789,0.2265410616,1.1009777138|H,0.5
 947337369,0.754870586,-0.5980807564|H,2.0714616492,0.0506705031,0.0793
 134374|H,-0.5936770845,-1.444347176,-0.3210576011|H,0.8303664746,-1.62
 6248734,-1.3511257436|H,1.8866331253,-2.430205957,0.578684554||Version
 =EM64W-G16RevA.03|State=1-A|HF=-155.0342899|RMSD=9.431e-010|RMSF=2.041
 e-005|ZeroPoint=0.0804008|Thermal=0.0846222|Dipole=0.4157029,0.4009545
 ,-0.3163722|DipoleDeriv=0.1106164,-0.0470172,-0.0024618,-0.0178632,-0.
 0936974,-0.010715,-0.0273435,-0.0484197,0.0654298,0.3600896,-0.0962096
 ,0.0835845,-0.1010921,0.7269467,-0.1834564,0.0780751,-0.1477654,0.5924
 357,-0.2606001,0.1434735,-0.1361818,0.1262276,-0.8589014,0.1524173,-0.
 1115281,0.154074,-0.6481144,0.0348931,-0.0034892,0.0548702,-0.0065721,
 0.0298097,-0.0372359,0.0509991,-0.0719734,-0.1143852,0.035257,0.049599
 5,-0.0535001,0.0402317,-0.0787417,0.0798006,-0.0518026,0.0995661,-0.02
 7436,-0.1827815,-0.0296415,-0.0088387,0.015534,0.0207088,-0.0119781,0.
 0006754,-0.0221919,0.0532876,-0.1680478,-0.0190973,-0.0216603,-0.01919
 94,-0.0114089,0.0095493,0.000284,0.0168248,0.0333365,0.0028897,0.01844
 4,0.0762767,0.0279881,-0.0690051,-0.0358724,0.0244652,-0.0292986,-0.24
 59207,0.0676837,-0.0160622,0.0079112,-0.0652545,0.3342894,0.0374906,0.
 0361755,0.0491841,0.2913666|Polar=26.8944407,-0.7548499,26.987714,0.96
 60783,-1.0888518,25.0834409|Quadrupole=1.8443776,-1.4657135,-0.3786641
 ,-1.4418952,0.5971749,0.5496085|PG=C01 [X(C2H6O1)]|NImag=0||0.56393366
 ,-0.02738836,0.49663094,-0.00774351,-0.02490386,0.58145462,-0.10172849
 ,-0.03353077,-0.01417758,0.62977053,-0.04020364,-0.16570708,-0.0427836
 6,-0.00049422,0.45588122,-0.01156149,-0.03674584,-0.09762036,-0.028172
 22,0.02516282,0.54735470,0.00523443,-0.00323537,0.00435597,-0.10913605
 ,0.04757378,-0.03999961,0.59613300,0.01661444,-0.03738745,0.03383783,0
 .00820328,-0.14597498,0.07533138,-0.04581928,0.21661866,-0.00189426,0.
 00613861,0.00334069,-0.00607521,0.07714807,-0.13657214,0.03434860,-0.1
 4451683,0.18094481,-0.07877872,0.01800807,0.07987674,0.00392783,-0.002
 35592,-0.01262593,-0.00043221,0.00102943,0.00038213,0.08026409,0.01833
 684,-0.06007318,-0.04927182,0.01032292,-0.00753176,-0.03245055,0.00010
 117,0.00390328,0.00181861,-0.01767122,0.06313832,0.07917904,-0.0513771
 3,-0.27715232,0.00259298,-0.00111979,-0.01066552,0.00015972,0.00029943
 ,0.00274928,-0.08649127,0.05784451,0.29953089,-0.08116943,0.06395982,-
 0.05857001,0.00320518,-0.00587922,0.00851841,0.00098570,-0.00338787,0.
 00005330,0.00362197,-0.00919466,0.00658948,0.08363307,0.06315822,-0.17
 600143,0.11299074,0.01420183,-0.01496465,0.02247521,-0.00215455,-0.009
 11325,-0.00095411,-0.00389215,0.00602945,-0.00469374,-0.06964662,0.189
 84384,-0.05820800,0.11405898,-0.15375098,0.00503473,-0.00634592,0.0058
 2869,-0.00065007,-0.00220297,0.00169748,-0.01174252,0.02146522,-0.0170
 4024,0.06459658,-0.12633417,0.16282325,-0.30599472,-0.01066541,0.00427
 705,-0.01197655,0.00104066,-0.00087806,0.00285929,-0.00031066,0.001012
 49,-0.00966350,-0.00000941,-0.00032989,-0.01066084,-0.00042658,0.00054
 558,0.33354258,-0.01081073,-0.04982883,0.00044894,-0.03503235,-0.00199
 597,0.00053875,0.00066747,0.00364161,-0.00080802,0.00693438,-0.0005753
 4,0.00075899,0.02384589,0.00158567,-0.00185185,0.01409957,0.05245534,0
 .00478983,-0.00059203,-0.05078850,-0.01189653,0.00044662,-0.00066854,0
 .00097679,0.00049361,-0.00026789,0.03139737,0.00145169,0.00145964,-0.0
 2134979,-0.00206919,0.00037357,-0.00347119,0.00157315,0.04863090,-0.00
 891979,-0.00164346,0.00101429,-0.31206427,-0.01318316,0.00760534,-0.01
 225485,0.00634271,-0.00560816,0.00069317,0.00021616,-0.00042653,0.0001
 7766,-0.00068130,0.00017767,0.00123721,-0.00179611,-0.00044520,0.33886
 130,-0.03251776,-0.00176373,0.00061852,-0.02049585,-0.04995614,-0.0019
 0398,0.03198078,-0.00454840,0.00570529,0.00080757,0.00137232,0.0000960
 2,0.00070463,0.00106407,0.00053885,-0.00201652,-0.00591691,-0.00231607
 ,0.01052588,0.06133539,-0.01033723,-0.00205040,0.00097026,0.01615051,-
 0.00222298,-0.05448426,-0.02900689,0.00533455,-0.00269022,-0.00050281,
 0.00086486,0.00039226,0.00029918,0.00014734,0.00028147,-0.00115381,-0.
 00173067,0.00052734,-0.00272847,-0.00528899,0.05729582,0.00441175,-0.0
 0493414,-0.01062045,-0.08539783,0.01802412,0.07332480,0.00718544,0.000
 97381,-0.01537619,0.00053104,-0.00225358,-0.00122117,0.00019791,0.0003
 1254,0.00033158,0.00092882,0.00105023,-0.00029531,-0.00958298,0.008176
 68,0.03061288,0.08027452,0.01032566,-0.00706800,-0.03012605,0.02005717
 ,-0.06515074,-0.05525181,-0.00475969,-0.00110146,0.03495690,-0.0028366
 2,-0.00598135,-0.00172079,0.00049821,0.00101736,0.00081590,-0.00036125
 ,0.00141557,0.00079842,-0.00118749,0.00188484,0.00127537,-0.02027562,0
 .07418742,0.00461144,-0.00406443,-0.00728443,0.07067508,-0.05492664,-0
 .24885461,-0.00092472,0.01212283,-0.02754851,-0.00067904,-0.00149735,0
 .00096223,-0.00000559,-0.00119853,0.00009042,-0.00039531,0.00061793,0.
 00022488,0.00185686,-0.00136304,0.00058991,-0.07583852,0.05026718,0.28
 123954,0.00301130,-0.00057038,0.00158749,-0.01660034,-0.00452241,0.003
 78876,-0.49057474,0.01635414,-0.00684269,-0.00016365,0.00015179,-0.000
 05236,0.00000878,-0.00087140,-0.00008554,-0.00027228,0.00104165,0.0002
 9404,0.00185255,0.00283460,-0.00333336,0.00145134,-0.00146037,0.000699
 80,0.50128704,0.00248534,0.00119876,-0.00081065,0.03676799,-0.00459990
 ,0.00284402,-0.02435431,-0.02603802,0.02051148,-0.00002354,-0.00028174
 ,-0.00008750,-0.00090018,0.00053895,-0.00014404,-0.00135039,-0.0007811
 4,0.00021380,0.00140677,-0.00347143,0.00367093,-0.00107404,0.00079634,
 0.00004204,-0.01295762,0.03263818,0.00116417,-0.00046390,0.00083102,-0
 .03413175,0.00464149,-0.00431795,0.03074022,0.01930016,-0.02165351,0.0
 0038533,-0.00022517,-0.00023622,-0.00013157,-0.00036357,-0.00030366,0.
 00039314,0.00045277,0.00050859,-0.00144580,0.00391341,-0.00288258,-0.0
 0091761,-0.00101512,0.00058057,0.00394387,-0.02624007,0.02747374||-0.0
 0003354,-0.00001429,-0.00001576,-0.00000937,0.00006557,0.00002280,-0.0
 0000233,-0.00004477,0.00000506,0.00000887,-0.00001979,-0.00002502,0.00
 001511,0.00001038,0.00000122,-0.00000919,0.00000071,-0.00000041,0.0000
 1551,0.00000542,-0.00001071,-0.00000609,-0.00000270,0.00001760,0.00002
 104,-0.00000054,0.00000521|||@


 ACTORS ARE SO FORTUNATE.  THEY CAN CHOOSE WHETHER
 THEY WILL APPEAR IN A TRAGEDY OR IN COMEDY,
 WHETHER THEY WILL SUFFER OF MAKE MERRY,
 LAUGH OR SHED TEARS.  BUT IN REAL LIFE IT IS DIFFERENT.
 MOST MEN AND WOMEN ARE FORCED TO PERFORM
 PARTS FOR WHICH THEY HAVE NO QUALIFICATIONS.
 THE WORLD IS A STAGE, BUT THE PLAY IS BADLY CAST.

                                   -- OSCAR WILDE
 Job cpu time:       0 days  0 hours  0 minutes 52.0 seconds.
 Elapsed time:       0 days  0 hours  0 minutes 49.4 seconds.
 File lengths (MBytes):  RWF=      7 Int=      0 D2E=      0 Chk=      1 Scr=      1
 Normal termination of Gaussian 16 at Sun May 28 08:51:38 2023.
